<?xml version="1.0" encoding="UTF-8"?>

<!-- generated on 2026-02-20T00:12:48.284756+05:30 by Eclipse SUMO GUI 1.26.0
<sumoConfiguration xmlns:xsi="http://www.w3.org/2001/XMLSchema-instance" xsi:noNamespaceSchemaLocation="http://sumo.dlr.de/xsd/sumoConfiguration.xsd">

    <input>
        <net-file value="config/../network/network.net.xml"/>
        <route-files value="config/../routes/map.rou.xml"/>
    </input>

    <output>
        <emission-output value="config/../output/emission.xml"/>
        <tripinfo-output value="config/../output/tripinfo.xml"/>
    </output>

    <time>
        <begin value="0"/>
        <end value="1500"/>
    </time>

    <traci_server>
  -->

<tripinfos xmlns:xsi="http://www.w3.org/2001/XMLSchema-instance" xsi:noNamespaceSchemaLocation="http://sumo.dlr.de/xsd/tripinfo_file.xsd">
</tripinfos>
mespaceSchemaLocation="http://sumo.dlr.de/xsd/tripinfo_file.xsd">
    <tripinfo id="2" depart="2.00" departLane="26524553#0_0" departPos="5.10" departSpeed="0.00" departDelay="0.00" arrival="39.00" arrivalLane="25466310#0_0" arrivalPos="305.91" arrivalSpeed="27.23" duration="37.00" routeLength="592.45" waitingTime="0.00" waitingCount="0" stopTime="0.00" timeLoss="14.29" rerouteNo="0" devices="tripinfo_2 emissions_2" vType="DEFAULT_VEHTYPE" speedFactor="1.01" vaporized="">
        <emissions CO_abs="3409.35" CO2_abs="265375.40" HC_abs="22.65" PMx_abs="20.68" NOx_abs="103.94" fuel_abs="86029.69" electricity_abs="0.00"/>
    </tripinfo>
    <tripinfo id="4" depart="4.00" departLane="-27347951#0_0" departPos="5.10" departSpeed="0.00" departDelay="0.00" arrival="53.00" arrivalLane="-1270468053_0" arrivalPos="60.77" arrivalSpeed="13.31" duration="49.00" routeLength="535.32" waitingTime="0.00" waitingCount="0" stopTime="0.00" timeLoss="17.62" rerouteNo="0" devices="tripinfo_4 emissions_4" vType="DEFAULT_VEHTYPE" speedFactor="1.03" vaporized="">
        <emissions CO_abs="2048.87" CO2_abs="233336.55" HC_abs="13.55" PMx_abs="14.87" NOx_abs="82.36" fuel_abs="75643.67" electricity_abs="0.00"/>
    </tripinfo>
    <tripinfo id="0" depart="0.00" departLane="215569984#5_0" departPos="5.10" departSpeed="0.00" departDelay="0.00" arrival="58.00" arrivalLane="-1249839431_0" arrivalPos="25.32" arrivalSpeed="11.69" duration="58.00" routeLength="723.02" waitingTime="0.00" waitingCount="0" stopTime="0.00" timeLoss="22.63" rerouteNo="0" devices="tripinfo_0 emissions_0" vType="DEFAULT_VEHTYPE" speedFactor="1.06" vaporized="">
        <emissions CO_abs="3209.91" CO2_abs="303587.82" HC_abs="21.30" PMx_abs="20.96" NOx_abs="112.05" fuel_abs="98417.69" electricity_abs="0.00"/>
    </tripinfo>
    <tripinfo id="53" depart="53.00" departLane="-28682073#2_0" departPos="5.10" departSpeed="0.00" departDelay="0.00" arrival="68.00" arrivalLane="28682073#2_0" arrivalPos="47.73" arrivalSpeed="13.81" duration="15.00" routeLength="95.86" waitingTime="0.00" waitingCount="0" stopTime="0.00" timeLoss="7.43" rerouteNo="0" devices="tripinfo_53 emissions_53" vType="DEFAULT_VEHTYPE" speedFactor="1.10" vaporized="">
        <emissions CO_abs="304.10" CO2_abs="63935.36" HC_abs="2.01" PMx_abs="3.23" NOx_abs="19.64" fuel_abs="20726.72" electricity_abs="0.00"/>
    </tripinfo>
    <tripinfo id="30" depart="30.00" departLane="934293362#1_0" departPos="5.10" departSpeed="0.00" departDelay="0.00" arrival="69.00" arrivalLane="23698638#7_0" arrivalPos="62.99" arrivalSpeed="23.39" duration="39.00" routeLength="457.60" waitingTime="0.00" waitingCount="0" stopTime="0.00" timeLoss="12.05" rerouteNo="0" devices="tripinfo_30 emissions_30" vType="DEFAULT_VEHTYPE" speedFactor="1.18" vaporized="">
        <emissions CO_abs="1840.78" CO2_abs="205601.75" HC_abs="12.19" PMx_abs="14.54" NOx_abs="72.90" fuel_abs="66652.58" electricity_abs="0.00"/>
    </tripinfo>
    <tripinfo id="36" depart="36.00" departLane="27347304_0" departPos="5.10" departSpeed="0.00" departDelay="0.00" arrival="69.00" arrivalLane="-27347303#0_0" arrivalPos="66.13" arrivalSpeed="12.66" duration="33.00" routeLength="344.24" waitingTime="0.00" waitingCount="0" stopTime="0.00" timeLoss="6.00" rerouteNo="0" devices="tripinfo_36 emissions_36" vType="DEFAULT_VEHTYPE" speedFactor="0.97" vaporized="">
        <emissions CO_abs="521.00" CO2_abs="96021.91" HC_abs="3.46" PMx_abs="7.52" NOx_abs="31.59" fuel_abs="31128.84" electricity_abs="0.00"/>
    </tripinfo>
    <tripinfo id="10" depart="10.00" departLane="27201956#2_0" departPos="5.10" departSpeed="0.00" departDelay="0.00" arrival="78.00" arrivalLane="25466415#3_0" arrivalPos="45.25" arrivalSpeed="14.13" duration="68.00" routeLength="699.36" waitingTime="0.00" waitingCount="0" stopTime="0.00" timeLoss="25.73" rerouteNo="0" devices="tripinfo_10 emissions_10" vType="DEFAULT_VEHTYPE" speedFactor="1.09" vaporized="">
        <emissions CO_abs="1611.34" CO2_abs="242940.78" HC_abs="10.67" PMx_abs="17.32" NOx_abs="81.00" fuel_abs="78757.55" electricity_abs="0.00"/>
    </tripinfo>
    <tripinfo id="5" depart="5.00" departLane="-25466488#0_0" departPos="5.10" departSpeed="0.00" departDelay="0.00" arrival="79.00" arrivalLane="1270468051#1_0" arrivalPos="23.83" arrivalSpeed="10.87" duration="74.00" routeLength="962.98" waitingTime="0.00" waitingCount="0" stopTime="0.00" timeLoss="19.78" rerouteNo="0" devices="tripinfo_5 emissions_5" vType="DEFAULT_VEHTYPE" speedFactor="0.83" vaporized="">
        <emissions CO_abs="2809.92" CO2_abs="305042.24" HC_abs="18.67" PMx_abs="24.29" NOx_abs="110.01" fuel_abs="98889.62" electricity_abs="0.00"/>
    </tripinfo>
    <tripinfo id="6" depart="6.00" departLane="-1249393725_0" departPos="5.10" departSpeed="0.00" departDelay="0.00" arrival="79.00" arrivalLane="-27189963#1_0" arrivalPos="97.86" arrivalSpeed="13.32" duration="73.00" routeLength="504.72" waitingTime="0.00" waitingCount="0" stopTime="0.00" timeLoss="19.47" rerouteNo="0" devices="tripinfo_6 emissions_6" vType="DEFAULT_VEHTYPE" speedFactor="1.05" vaporized="">
        <emissions CO_abs="1490.69" CO2_abs="220027.08" HC_abs="9.87" PMx_abs="13.34" NOx_abs="75.83" fuel_abs="71329.17" electricity_abs="0.00"/>
    </tripinfo>
    <tripinfo id="1" depart="1.00" departLane="-27190001_0" departPos="5.10" departSpeed="0.00" departDelay="0.00" arrival="84.00" arrivalLane="-27190002#0_0" arrivalPos="162.07" arrivalSpeed="12.46" duration="83.00" routeLength="817.80" waitingTime="0.00" waitingCount="0" stopTime="0.00" timeLoss="19.16" rerouteNo="0" devices="tripinfo_1 emissions_1" vType="DEFAULT_VEHTYPE" speedFactor="0.94" vaporized="">
        <emissions CO_abs="1233.37" CO2_abs="232187.02" HC_abs="8.19" PMx_abs="18.75" NOx_abs="76.47" fuel_abs="75271.56" electricity_abs="0.00"/>
    </tripinfo>
    <tripinfo id="43" depart="43.00" departLane="995112306_0" departPos="5.10" departSpeed="0.00" departDelay="0.00" arrival="86.00" arrivalLane="1285825365#0_0" arrivalPos="58.54" arrivalSpeed="14.15" duration="43.00" routeLength="418.09" waitingTime="0.00" waitingCount="0" stopTime="0.00" timeLoss="15.81" rerouteNo="0" devices="tripinfo_43 emissions_43" vType="DEFAULT_VEHTYPE" speedFactor="1.04" vaporized="">
        <emissions CO_abs="1103.53" CO2_abs="167004.22" HC_abs="7.30" PMx_abs="10.45" NOx_abs="55.14" fuel_abs="54139.99" electricity_abs="0.00"/>
    </tripinfo>
    <tripinfo id="35" depart="35.00" departLane="-25466343#8_0" departPos="5.10" departSpeed="0.00" departDelay="0.00" arrival="89.00" arrivalLane="27432884_0" arrivalPos="48.89" arrivalSpeed="14.08" duration="54.00" routeLength="626.91" waitingTime="0.00" waitingCount="0" stopTime="0.00" timeLoss="20.58" rerouteNo="0" devices="tripinfo_35 emissions_35" vType="DEFAULT_VEHTYPE" speedFactor="1.02" vaporized="">
        <emissions CO_abs="2325.54" CO2_abs="266898.88" HC_abs="15.39" PMx_abs="18.02" NOx_abs="93.92" fuel_abs="86524.10" electricity_abs="0.00"/>
    </tripinfo>
    <tripinfo id="39" depart="39.00" departLane="-27189985_0" departPos="5.10" departSpeed="0.00" departDelay="0.00" arrival="95.00" arrivalLane="-27201956#2_0" arrivalPos="75.16" arrivalSpeed="19.42" duration="56.00" routeLength="530.42" waitingTime="0.00" waitingCount="0" stopTime="0.00" timeLoss="14.79" rerouteNo="0" devices="tripinfo_39 emissions_39" vType="DEFAULT_VEHTYPE" speedFactor="0.90" vaporized="">
        <emissions CO_abs="1301.70" CO2_abs="201470.87" HC_abs="8.62" PMx_abs="13.84" NOx_abs="67.63" fuel_abs="65313.67" electricity_abs="0.00"/>
    </tripinfo>
    <tripinfo id="29" depart="29.00" departLane="-23698645#1_0" departPos="5.10" departSpeed="0.00" departDelay="0.00" arrival="96.00" arrivalLane="-28681578#16_0" arrivalPos="111.60" arrivalSpeed="20.15" duration="67.00" routeLength="900.29" waitingTime="0.00" waitingCount="0" stopTime="0.00" timeLoss="24.37" rerouteNo="0" devices="tripinfo_29 emissions_29" vType="DEFAULT_VEHTYPE" speedFactor="0.93" vaporized="">
        <emissions CO_abs="3741.30" CO2_abs="361622.67" HC_abs="24.82" PMx_abs="26.81" NOx_abs="133.23" fuel_abs="117231.71" electricity_abs="0.00"/>
    </tripinfo>
    <tripinfo id="13" depart="13.00" departLane="-214202911_0" departPos="5.10" departSpeed="0.00" departDelay="0.00" arrival="102.00" arrivalLane="-214202939#0_0" arrivalPos="38.75" arrivalSpeed="14.30" duration="89.00" routeLength="885.57" waitingTime="2.00" waitingCount="2" stopTime="0.00" timeLoss="33.90" rerouteNo="0" devices="tripinfo_13 emissions_13" vType="DEFAULT_VEHTYPE" speedFactor="1.12" vaporized="">
        <emissions CO_abs="2220.68" CO2_abs="332724.83" HC_abs="14.70" PMx_abs="22.01" NOx_abs="111.42" fuel_abs="107864.01" electricity_abs="0.00"/>
    </tripinfo>
    <tripinfo id="7" depart="7.00" departLane="22976235#0_0" departPos="5.10" departSpeed="0.00" departDelay="0.00" arrival="103.00" arrivalLane="185021778_0" arrivalPos="272.45" arrivalSpeed="11.40" duration="96.00" routeLength="978.28" waitingTime="0.00" waitingCount="0" stopTime="0.00" timeLoss="29.26" rerouteNo="0" devices="tripinfo_7 emissions_7" vType="DEFAULT_VEHTYPE" speedFactor="0.89" vaporized="">
        <emissions CO_abs="2389.93" CO2_abs="340953.83" HC_abs="15.82" PMx_abs="24.50" NOx_abs="116.69" fuel_abs="110531.82" electricity_abs="0.00"/>
    </tripinfo>
    <tripinfo id="26" depart="26.00" departLane="-27189990_0" departPos="5.10" departSpeed="0.00" departDelay="0.00" arrival="103.00" arrivalLane="27432184#0_0" arrivalPos="60.92" arrivalSpeed="12.34" duration="77.00" routeLength="839.26" waitingTime="0.00" waitingCount="0" stopTime="0.00" timeLoss="26.47" rerouteNo="0" devices="tripinfo_26 emissions_26" vType="DEFAULT_VEHTYPE" speedFactor="0.92" vaporized="">
        <emissions CO_abs="2707.39" CO2_abs="326313.99" HC_abs="17.93" PMx_abs="22.30" NOx_abs="113.89" fuel_abs="105785.53" electricity_abs="0.00"/>
    </tripinfo>
    <tripinfo id="44" depart="44.00" departLane="-214202907#1_0" departPos="5.10" departSpeed="0.00" departDelay="0.00" arrival="104.00" arrivalLane="-160274855#2_0" arrivalPos="72.20" arrivalSpeed="13.53" duration="60.00" routeLength="683.05" waitingTime="0.00" waitingCount="0" stopTime="0.00" timeLoss="15.93" rerouteNo="0" devices="tripinfo_44 emissions_44" vType="DEFAULT_VEHTYPE" speedFactor="1.04" vaporized="">
        <emissions CO_abs="1777.08" CO2_abs="232524.42" HC_abs="11.77" PMx_abs="17.38" NOx_abs="80.56" fuel_abs="75380.69" electricity_abs="0.00"/>
    </tripinfo>
    <tripinfo id="8" depart="8.00" departLane="-25466488#2_0" departPos="5.10" departSpeed="0.00" departDelay="0.00" arrival="105.00" arrivalLane="215569984#5_0" arrivalPos="124.41" arrivalSpeed="21.85" duration="97.00" routeLength="1251.27" waitingTime="0.00" waitingCount="0" stopTime="0.00" timeLoss="35.79" rerouteNo="0" devices="tripinfo_8 emissions_8" vType="DEFAULT_VEHTYPE" speedFactor="0.94" vaporized="">
        <emissions CO_abs="4954.56" CO2_abs="477020.37" HC_abs="32.95" PMx_abs="36.68" NOx_abs="176.11" fuel_abs="154641.65" electricity_abs="0.00"/>
    </tripinfo>
    <tripinfo id="51" depart="51.00" departLane="-27189990_0" departPos="5.10" departSpeed="0.00" departDelay="0.00" arrival="105.00" arrivalLane="23698638#8_0" arrivalPos="62.33" arrivalSpeed="19.58" duration="54.00" routeLength="764.15" waitingTime="0.00" waitingCount="0" stopTime="0.00" timeLoss="18.70" rerouteNo="0" devices="tripinfo_51 emissions_51" vType="DEFAULT_VEHTYPE" speedFactor="1.17" vaporized="">
        <emissions CO_abs="3062.28" CO2_abs="292586.27" HC_abs="20.39" PMx_abs="23.09" NOx_abs="107.53" fuel_abs="94851.37" electricity_abs="0.00"/>
    </tripinfo>
    <tripinfo id="20" depart="20.00" departLane="25466343#10_0" departPos="5.10" departSpeed="0.00" departDelay="0.00" arrival="106.00" arrivalLane="-160274855#0_0" arrivalPos="89.01" arrivalSpeed="13.61" duration="86.00" routeLength="1161.86" waitingTime="0.00" waitingCount="0" stopTime="0.00" timeLoss="26.02" rerouteNo="0" devices="tripinfo_20 emissions_20" vType="DEFAULT_VEHTYPE" speedFactor="1.02" vaporized="">
        <emissions CO_abs="4486.68" CO2_abs="420648.81" HC_abs="29.81" PMx_abs="33.18" NOx_abs="157.37" fuel_abs="136366.97" electricity_abs="0.00"/>
    </tripinfo>
    <tripinfo id="14" depart="14.00" departLane="27346854#3_0" departPos="5.10" departSpeed="0.00" departDelay="0.00" arrival="107.00" arrivalLane="23634200#0_0" arrivalPos="9.07" arrivalSpeed="10.44" duration="93.00" routeLength="1216.35" waitingTime="1.00" waitingCount="1" stopTime="0.00" timeLoss="31.36" rerouteNo="0" devices="tripinfo_14 emissions_14" vType="DEFAULT_VEHTYPE" speedFactor="0.99" vaporized="">
        <emissions CO_abs="4536.28" CO2_abs="442000.39" HC_abs="30.10" PMx_abs="32.84" NOx_abs="163.43" fuel_abs="143288.77" electricity_abs="0.00"/>
    </tripinfo>
    <tripinfo id="23" depart="23.00" departLane="-214202939#0_0" departPos="5.10" departSpeed="0.00" departDelay="0.00" arrival="108.00" arrivalLane="-27346846_0" arrivalPos="213.69" arrivalSpeed="11.96" duration="85.00" routeLength="822.36" waitingTime="0.00" waitingCount="0" stopTime="0.00" timeLoss="26.97" rerouteNo="0" devices="tripinfo_23 emissions_23" vType="DEFAULT_VEHTYPE" speedFactor="0.89" vaporized="">
        <emissions CO_abs="2163.83" CO2_abs="295565.10" HC_abs="14.33" PMx_abs="20.29" NOx_abs="101.13" fuel_abs="95817.33" electricity_abs="0.00"/>
    </tripinfo>
    <tripinfo id="62" depart="62.00" departLane="-27201956#2_0" departPos="5.10" departSpeed="0.00" departDelay="0.00" arrival="110.00" arrivalLane="-184744473_0" arrivalPos="170.85" arrivalSpeed="13.51" duration="48.00" routeLength="532.65" waitingTime="0.00" waitingCount="0" stopTime="0.00" timeLoss="17.17" rerouteNo="0" devices="tripinfo_62 emissions_62" vType="DEFAULT_VEHTYPE" speedFactor="1.02" vaporized="">
        <emissions CO_abs="1587.42" CO2_abs="202849.26" HC_abs="10.52" PMx_abs="14.26" NOx_abs="69.66" fuel_abs="65760.31" electricity_abs="0.00"/>
    </tripinfo>
    <tripinfo id="34" depart="34.00" departLane="-27201956#5_0" departPos="5.10" departSpeed="0.00" departDelay="0.00" arrival="111.00" arrivalLane="-27202364#1_0" arrivalPos="98.29" arrivalSpeed="20.32" duration="77.00" routeLength="1136.26" waitingTime="0.00" waitingCount="0" stopTime="0.00" timeLoss="15.49" rerouteNo="0" devices="tripinfo_34 emissions_34" vType="DEFAULT_VEHTYPE" speedFactor="0.99" vaporized="">
        <emissions CO_abs="2893.18" CO2_abs="312307.23" HC_abs="19.36" PMx_abs="30.96" NOx_abs="113.13" fuel_abs="101245.12" electricity_abs="0.00"/>
    </tripinfo>
    <tripinfo id="38" depart="38.00" departLane="27347951#1_0" departPos="5.10" departSpeed="0.00" departDelay="0.00" arrival="113.00" arrivalLane="1211074476#4_0" arrivalPos="115.16" arrivalSpeed="29.64" duration="75.00" routeLength="865.85" waitingTime="14.00" waitingCount="1" stopTime="0.00" timeLoss="38.28" rerouteNo="0" devices="tripinfo_38 emissions_38" vType="DEFAULT_VEHTYPE" speedFactor="1.10" vaporized="">
        <emissions CO_abs="4729.22" CO2_abs="409183.02" HC_abs="31.38" PMx_abs="28.10" NOx_abs="157.93" fuel_abs="132649.68" electricity_abs="0.00"/>
    </tripinfo>
    <tripinfo id="19" depart="19.00" departLane="27346860#0_0" departPos="5.10" departSpeed="0.00" departDelay="0.00" arrival="114.00" arrivalLane="214379317#1_0" arrivalPos="31.83" arrivalSpeed="13.45" duration="95.00" routeLength="1201.66" waitingTime="1.00" waitingCount="1" stopTime="0.00" timeLoss="36.40" rerouteNo="0" devices="tripinfo_19 emissions_19" vType="DEFAULT_VEHTYPE" speedFactor="1.16" vaporized="">
        <emissions CO_abs="5177.30" CO2_abs="494041.98" HC_abs="34.31" PMx_abs="35.92" NOx_abs="184.13" fuel_abs="160159.75" electricity_abs="0.00"/>
    </tripinfo>
    <tripinfo id="40" depart="40.00" departLane="1340467633#2_0" departPos="5.10" departSpeed="0.00" departDelay="0.00" arrival="120.00" arrivalLane="-27202330#0_0" arrivalPos="134.98" arrivalSpeed="13.53" duration="80.00" routeLength="1021.72" waitingTime="0.00" waitingCount="0" stopTime="0.00" timeLoss="22.73" rerouteNo="0" devices="tripinfo_40 emissions_40" vType="DEFAULT_VEHTYPE" speedFactor="1.03" vaporized="">
        <emissions CO_abs="3455.62" CO2_abs="356972.73" HC_abs="22.97" PMx_abs="28.75" NOx_abs="130.40" fuel_abs="115724.49" electricity_abs="0.00"/>
    </tripinfo>
    <tripinfo id="27" depart="27.00" departLane="218221718#5_0" departPos="5.10" departSpeed="0.00" departDelay="0.00" arrival="122.00" arrivalLane="23634200#6_0" arrivalPos="528.11" arrivalSpeed="12.15" duration="95.00" routeLength="1068.50" waitingTime="0.00" waitingCount="0" stopTime="0.00" timeLoss="12.27" rerouteNo="0" devices="tripinfo_27 emissions_27" vType="DEFAULT_VEHTYPE" speedFactor="0.95" vaporized="">
        <emissions CO_abs="1207.59" CO2_abs="232123.28" HC_abs="8.06" PMx_abs="23.42" NOx_abs="78.83" fuel_abs="75251.23" electricity_abs="0.00"/>
    </tripinfo>
    <tripinfo id="46" depart="46.00" departLane="27201854#3_0" departPos="5.10" departSpeed="0.00" departDelay="0.00" arrival="122.00" arrivalLane="1016263227#1_0" arrivalPos="122.35" arrivalSpeed="12.68" duration="76.00" routeLength="947.91" waitingTime="1.00" waitingCount="1" stopTime="0.00" timeLoss="26.37" rerouteNo="0" devices="tripinfo_46 emissions_46" vType="DEFAULT_VEHTYPE" speedFactor="1.00" vaporized="">
        <emissions CO_abs="3362.17" CO2_abs="362538.88" HC_abs="22.30" PMx_abs="26.37" NOx_abs="130.21" fuel_abs="117528.90" electricity_abs="0.00"/>
    </tripinfo>
    <tripinfo id="9" depart="9.00" departLane="27201956#4_0" departPos="5.10" departSpeed="0.00" departDelay="0.00" arrival="125.00" arrivalLane="-102482926#0_0" arrivalPos="57.12" arrivalSpeed="10.79" duration="116.00" routeLength="1285.13" waitingTime="0.00" waitingCount="0" stopTime="0.00" timeLoss="26.21" rerouteNo="0" devices="tripinfo_9 emissions_9" vType="DEFAULT_VEHTYPE" speedFactor="0.86" vaporized="">
        <emissions CO_abs="2469.95" CO2_abs="366976.60" HC_abs="16.44" PMx_abs="31.00" NOx_abs="125.20" fuel_abs="118968.21" electricity_abs="0.00"/>
    </tripinfo>
    <tripinfo id="50" depart="50.00" departLane="25459576#0_0" departPos="5.10" departSpeed="0.00" departDelay="0.00" arrival="125.00" arrivalLane="160274864_0" arrivalPos="157.62" arrivalSpeed="10.86" duration="75.00" routeLength="944.11" waitingTime="0.00" waitingCount="0" stopTime="0.00" timeLoss="15.12" rerouteNo="0" devices="tripinfo_50 emissions_50" vType="DEFAULT_VEHTYPE" speedFactor="0.85" vaporized="">
        <emissions CO_abs="2111.94" CO2_abs="260225.38" HC_abs="14.12" PMx_abs="24.18" NOx_abs="91.96" fuel_abs="84361.05" electricity_abs="0.00"/>
    </tripinfo>
    <tripinfo id="68" depart="68.00" departLane="-27347951#1_0" departPos="5.10" departSpeed="0.00" departDelay="0.00" arrival="125.00" arrivalLane="-27189993#0_0" arrivalPos="64.59" arrivalSpeed="13.88" duration="57.00" routeLength="559.74" waitingTime="0.00" waitingCount="0" stopTime="0.00" timeLoss="18.53" rerouteNo="0" devices="tripinfo_68 emissions_68" vType="DEFAULT_VEHTYPE" speedFactor="1.04" vaporized="">
        <emissions CO_abs="1416.85" CO2_abs="211658.77" HC_abs="9.38" PMx_abs="14.22" NOx_abs="70.85" fuel_abs="68616.37" electricity_abs="0.00"/>
    </tripinfo>
    <tripinfo id="3" depart="3.00" departLane="27347435#1_0" departPos="5.10" departSpeed="0.00" departDelay="0.00" arrival="127.00" arrivalLane="-214202907#1_0" arrivalPos="113.63" arrivalSpeed="14.49" duration="124.00" routeLength="1575.88" waitingTime="0.00" waitingCount="0" stopTime="0.00" timeLoss="36.69" rerouteNo="0" devices="tripinfo_3 emissions_3" vType="DEFAULT_VEHTYPE" speedFactor="1.08" vaporized="">
        <emissions CO_abs="5396.82" CO2_abs="553888.36" HC_abs="35.78" PMx_abs="41.83" NOx_abs="202.52" fuel_abs="179561.14" electricity_abs="0.00"/>
    </tripinfo>
    <tripinfo id="95" depart="95.00" departLane="995112311_0" departPos="5.10" departSpeed="0.00" departDelay="0.00" arrival="128.00" arrivalLane="27202330#5_0" arrivalPos="27.76" arrivalSpeed="14.48" duration="33.00" routeLength="256.12" waitingTime="0.00" waitingCount="0" stopTime="0.00" timeLoss="12.38" rerouteNo="0" devices="tripinfo_95 emissions_95" vType="DEFAULT_VEHTYPE" speedFactor="1.06" vaporized="">
        <emissions CO_abs="663.71" CO2_abs="118548.46" HC_abs="4.38" PMx_abs="6.26" NOx_abs="37.33" fuel_abs="38431.39" electricity_abs="0.00"/>
    </tripinfo>
    <tripinfo id="16" depart="16.00" departLane="1229033621#0_0" departPos="5.10" departSpeed="0.00" departDelay="0.00" arrival="136.00" arrivalLane="34256966#4_0" arrivalPos="53.53" arrivalSpeed="11.10" duration="120.00" routeLength="1603.27" waitingTime="0.00" waitingCount="0" stopTime="0.00" timeLoss="40.14" rerouteNo="0" devices="tripinfo_16 emissions_16" vType="DEFAULT_VEHTYPE" speedFactor="0.88" vaporized="">
        <emissions CO_abs="6008.57" CO2_abs="585143.78" HC_abs="39.92" PMx_abs="45.36" NOx_abs="215.44" fuel_abs="189693.58" electricity_abs="0.00"/>
    </tripinfo>
    <tripinfo id="82" depart="82.00" departLane="-412956333#2_0" departPos="5.10" departSpeed="0.00" departDelay="0.00" arrival="137.00" arrivalLane="27201848_0" arrivalPos="217.25" arrivalSpeed="14.01" duration="55.00" routeLength="561.71" waitingTime="0.00" waitingCount="0" stopTime="0.00" timeLoss="17.63" rerouteNo="0" devices="tripinfo_82 emissions_82" vType="DEFAULT_VEHTYPE" speedFactor="1.02" vaporized="">
        <emissions CO_abs="1306.11" CO2_abs="199689.18" HC_abs="8.64" PMx_abs="13.79" NOx_abs="66.76" fuel_abs="64736.05" electricity_abs="0.00"/>
    </tripinfo>
    <tripinfo id="11" depart="11.00" departLane="-27202430_0" departPos="5.10" departSpeed="0.00" departDelay="0.00" arrival="139.00" arrivalLane="-25466310#0_0" arrivalPos="308.85" arrivalSpeed="6.21" duration="128.00" routeLength="1484.81" waitingTime="11.00" waitingCount="1" stopTime="0.00" timeLoss="49.29" rerouteNo="0" devices="tripinfo_11 emissions_11" vType="DEFAULT_VEHTYPE" speedFactor="1.03" vaporized="">
        <emissions CO_abs="5965.67" CO2_abs="541342.83" HC_abs="39.85" PMx_abs="44.08" NOx_abs="207.12" fuel_abs="175494.15" electricity_abs="0.00"/>
    </tripinfo>
    <tripinfo id="28" depart="28.00" departLane="-25459576#1_0" departPos="5.10" departSpeed="0.00" departDelay="0.00" arrival="139.00" arrivalLane="25593863#2_0" arrivalPos="587.23" arrivalSpeed="14.82" duration="111.00" routeLength="1703.42" waitingTime="0.00" waitingCount="0" stopTime="0.00" timeLoss="25.74" rerouteNo="0" devices="tripinfo_28 emissions_28" vType="DEFAULT_VEHTYPE" speedFactor="1.13" vaporized="">
        <emissions CO_abs="5655.76" CO2_abs="504429.32" HC_abs="37.74" PMx_abs="47.21" NOx_abs="192.63" fuel_abs="163527.48" electricity_abs="0.00"/>
    </tripinfo>
    <tripinfo id="61" depart="61.00" departLane="-1196382376_0" departPos="5.10" departSpeed="0.00" departDelay="0.00" arrival="140.00" arrivalLane="27347956_0" arrivalPos="124.11" arrivalSpeed="14.88" duration="79.00" routeLength="838.34" waitingTime="4.00" waitingCount="1" stopTime="0.00" timeLoss="28.13" rerouteNo="0" devices="tripinfo_61 emissions_61" vType="DEFAULT_VEHTYPE" speedFactor="1.12" vaporized="">
        <emissions CO_abs="2395.12" CO2_abs="297051.14" HC_abs="15.88" PMx_abs="21.72" NOx_abs="105.41" fuel_abs="96299.08" electricity_abs="0.00"/>
    </tripinfo>
    <tripinfo id="108" depart="108.00" departLane="-23698638#3_0" departPos="5.10" departSpeed="0.00" departDelay="0.00" arrival="140.00" arrivalLane="28682074#5_0" arrivalPos="126.33" arrivalSpeed="13.99" duration="32.00" routeLength="434.64" waitingTime="0.00" waitingCount="0" stopTime="0.00" timeLoss="8.06" rerouteNo="0" devices="tripinfo_108 emissions_108" vType="DEFAULT_VEHTYPE" speedFactor="1.06" vaporized="">
        <emissions CO_abs="1408.96" CO2_abs="151058.04" HC_abs="9.36" PMx_abs="11.83" NOx_abs="54.35" fuel_abs="48970.46" electricity_abs="0.00"/>
    </tripinfo>
    <tripinfo id="17" depart="17.00" departLane="-27346863_0" departPos="5.10" departSpeed="0.00" departDelay="0.00" arrival="141.00" arrivalLane="207139556_0" arrivalPos="114.36" arrivalSpeed="12.65" duration="124.00" routeLength="1459.04" waitingTime="0.00" waitingCount="0" stopTime="0.00" timeLoss="36.85" rerouteNo="0" devices="tripinfo_17 emissions_17" vType="DEFAULT_VEHTYPE" speedFactor="0.94" vaporized="">
        <emissions CO_abs="4348.35" CO2_abs="501877.40" HC_abs="28.85" PMx_abs="37.76" NOx_abs="178.05" fuel_abs="162700.35" electricity_abs="0.00"/>
    </tripinfo>
    <tripinfo id="57" depart="57.00" departLane="214202907#0_0" departPos="5.10" departSpeed="0.00" departDelay="0.00" arrival="144.00" arrivalLane="-25466310#0_0" arrivalPos="308.85" arrivalSpeed="30.44" duration="87.00" routeLength="1377.88" waitingTime="1.00" waitingCount="1" stopTime="0.00" timeLoss="28.34" rerouteNo="0" devices="tripinfo_57 emissions_57" vType="DEFAULT_VEHTYPE" speedFactor="1.14" vaporized="">
        <emissions CO_abs="6716.93" CO2_abs="521422.38" HC_abs="44.82" PMx_abs="44.11" NOx_abs="204.46" fuel_abs="169035.50" electricity_abs="0.00"/>
    </tripinfo>
    <tripinfo id="98" depart="98.00" departLane="-995112305#1_0" departPos="5.10" departSpeed="0.00" departDelay="0.00" arrival="148.00" arrivalLane="-27189994#0_0" arrivalPos="25.38" arrivalSpeed="12.55" duration="50.00" routeLength="428.42" waitingTime="4.00" waitingCount="1" stopTime="0.00" timeLoss="20.35" rerouteNo="0" devices="tripinfo_98 emissions_98" vType="DEFAULT_VEHTYPE" speedFactor="1.12" vaporized="">
        <emissions CO_abs="902.44" CO2_abs="165182.62" HC_abs="5.98" PMx_abs="10.56" NOx_abs="54.34" fuel_abs="53549.57" electricity_abs="0.00"/>
    </tripinfo>
    <tripinfo id="85" depart="85.00" departLane="-27347951#1_0" departPos="5.10" departSpeed="0.00" departDelay="0.00" arrival="149.00" arrivalLane="1229033616#2_1" arrivalPos="34.07" arrivalSpeed="12.93" duration="64.00" routeLength="561.29" waitingTime="1.00" waitingCount="1" stopTime="0.00" timeLoss="28.52" rerouteNo="0" devices="tripinfo_85 emissions_85" vType="DEFAULT_VEHTYPE" speedFactor="0.98" vaporized="">
        <emissions CO_abs="1704.10" CO2_abs="256831.55" HC_abs="11.26" PMx_abs="15.16" NOx_abs="85.21" fuel_abs="83260.49" electricity_abs="0.00"/>
    </tripinfo>
    <tripinfo id="93" depart="93.00" departLane="-27432884_0" departPos="5.10" departSpeed="0.00" departDelay="0.00" arrival="149.00" arrivalLane="27346854#4_0" arrivalPos="152.87" arrivalSpeed="11.82" duration="56.00" routeLength="573.05" waitingTime="0.00" waitingCount="0" stopTime="0.00" timeLoss="16.68" rerouteNo="0" devices="tripinfo_93 emissions_93" vType="DEFAULT_VEHTYPE" speedFactor="0.92" vaporized="">
        <emissions CO_abs="1625.66" CO2_abs="221885.65" HC_abs="10.76" PMx_abs="15.23" NOx_abs="75.98" fuel_abs="71931.73" electricity_abs="0.00"/>
    </tripinfo>
    <tripinfo id="97" depart="97.00" departLane="27346854#3_0" departPos="5.10" departSpeed="0.00" departDelay="0.00" arrival="151.00" arrivalLane="-25466343#6_0" arrivalPos="51.74" arrivalSpeed="15.58" duration="54.00" routeLength="554.39" waitingTime="0.00" waitingCount="0" stopTime="0.00" timeLoss="19.08" rerouteNo="0" devices="tripinfo_97 emissions_97" vType="DEFAULT_VEHTYPE" speedFactor="0.91" vaporized="">
        <emissions CO_abs="1633.19" CO2_abs="220214.91" HC_abs="10.81" PMx_abs="14.93" NOx_abs="74.94" fuel_abs="71390.03" electricity_abs="0.00"/>
    </tripinfo>
    <tripinfo id="80" depart="80.00" departLane="-25466485#3_0" departPos="5.10" departSpeed="0.00" departDelay="0.00" arrival="153.00" arrivalLane="-23698638#6_0" arrivalPos="49.07" arrivalSpeed="21.82" duration="73.00" routeLength="882.54" waitingTime="6.00" waitingCount="1" stopTime="0.00" timeLoss="27.63" rerouteNo="0" devices="tripinfo_80 emissions_80" vType="DEFAULT_VEHTYPE" speedFactor="1.03" vaporized="">
        <emissions CO_abs="3202.22" CO2_abs="337850.13" HC_abs="21.29" PMx_abs="25.99" NOx_abs="123.24" fuel_abs="109525.40" electricity_abs="0.00"/>
    </tripinfo>
    <tripinfo id="94" depart="94.00" departLane="1285825365#0_0" departPos="5.10" departSpeed="0.00" departDelay="0.00" arrival="158.00" arrivalLane="-160274857_0" arrivalPos="111.02" arrivalSpeed="15.14" duration="64.00" routeLength="659.12" waitingTime="4.00" waitingCount="1" stopTime="0.00" timeLoss="28.45" rerouteNo="0" devices="tripinfo_94 emissions_94" vType="DEFAULT_VEHTYPE" speedFactor="1.09" vaporized="">
        <emissions CO_abs="2245.32" CO2_abs="275327.67" HC_abs="14.88" PMx_abs="19.25" NOx_abs="97.20" fuel_abs="89256.65" electricity_abs="0.00"/>
    </tripinfo>
    <tripinfo id="107" depart="107.00" departLane="1093710256#1_0" departPos="5.10" departSpeed="0.00" departDelay="0.00" arrival="160.00" arrivalLane="27346849_0" arrivalPos="104.13" arrivalSpeed="13.49" duration="53.00" routeLength="528.83" waitingTime="1.00" waitingCount="1" stopTime="0.00" timeLoss="23.93" rerouteNo="0" devices="tripinfo_107 emissions_107" vType="DEFAULT_VEHTYPE" speedFactor="1.03" vaporized="">
        <emissions CO_abs="1813.16" CO2_abs="230380.26" HC_abs="11.99" PMx_abs="14.58" NOx_abs="79.61" fuel_abs="74685.39" electricity_abs="0.00"/>
    </tripinfo>