<?xml version="1.0" encoding="UTF-8"?>

<!-- generated on 2026-02-19T17:56:19.129900+05:30 by Eclipse SUMO sumo 1.26.0
<sumoConfiguration xmlns:xsi="http://www.w3.org/2001/XMLSchema-instance" xsi:noNamespaceSchemaLocation="http://sumo.dlr.de/xsd/sumoConfiguration.xsd">

    <input>
        <net-file value="../config/../network/map.net.xml"/>
        <route-files value="../config/../routes/map.rou.xml"/>
    </input>

    <output>
        <emission-output value="../config/../output/emission.xml"/>
        <tripinfo-output value="../config/../output/tripinfo.xml"/>
    </output>

    <time>
        <begin value="0"/>
        <end value="1500"/>
    </time>

    <traci_server>
        <remote-port value="30202"/>
    </traci_server>

</sumoConfiguration>
-->

<tripinfos xmlns:xsi="http://www.w3.org/2001/XMLSchema-instance" xsi:noNamespaceSchemaLocation="http://sumo.dlr.de/xsd/tripinfo_file.xsd">
    <tripinfo id="2" depart="2.00" departLane="26524553#0_0" departPos="5.10" departSpeed="0.00" departDelay="0.00" arrival="39.00" arrivalLane="25466310#0_0" arrivalPos="305.91" arrivalSpeed="27.23" duration="37.00" routeLength="592.45" waitingTime="0.00" waitingCount="0" stopTime="0.00" timeLoss="14.29" rerouteNo="0" devices="tripinfo_2 emissions_2" vType="DEFAULT_VEHTYPE" speedFactor="1.01" vaporized="">
        <emissions CO_abs="3409.35" CO2_abs="265375.40" HC_abs="22.65" PMx_abs="20.68" NOx_abs="103.94" fuel_abs="86029.69" electricity_abs="0.00"/>
    </tripinfo>
    <tripinfo id="4" depart="4.00" departLane="-27347951#0_0" departPos="5.10" departSpeed="0.00" departDelay="0.00" arrival="53.00" arrivalLane="-1270468053_0" arrivalPos="60.77" arrivalSpeed="13.31" duration="49.00" routeLength="535.32" waitingTime="0.00" waitingCount="0" stopTime="0.00" timeLoss="17.62" rerouteNo="0" devices="tripinfo_4 emissions_4" vType="DEFAULT_VEHTYPE" speedFactor="1.03" vaporized="">
        <emissions CO_abs="2048.87" CO2_abs="233336.55" HC_abs="13.55" PMx_abs="14.87" NOx_abs="82.36" fuel_abs="75643.67" electricity_abs="0.00"/>
    </tripinfo>
    <tripinfo id="0" depart="0.00" departLane="215569984#5_0" departPos="5.10" departSpeed="0.00" departDelay="0.00" arrival="58.00" arrivalLane="-1249839431_0" arrivalPos="25.32" arrivalSpeed="11.69" duration="58.00" routeLength="723.02" waitingTime="0.00" waitingCount="0" stopTime="0.00" timeLoss="22.63" rerouteNo="0" devices="tripinfo_0 emissions_0" vType="DEFAULT_VEHTYPE" speedFactor="1.06" vaporized="">
        <emissions CO_abs="3209.91" CO2_abs="303587.82" HC_abs="21.30" PMx_abs="20.96" NOx_abs="112.05" fuel_abs="98417.69" electricity_abs="0.00"/>
    </tripinfo>
    <tripinfo id="53" depart="53.00" departLane="-28682073#2_0" departPos="5.10" departSpeed="0.00" departDelay="0.00" arrival="68.00" arrivalLane="28682073#2_0" arrivalPos="47.73" arrivalSpeed="13.81" duration="15.00" routeLength="95.86" waitingTime="0.00" waitingCount="0" stopTime="0.00" timeLoss="7.43" rerouteNo="0" devices="tripinfo_53 emissions_53" vType="DEFAULT_VEHTYPE" speedFactor="1.10" vaporized="">
        <emissions CO_abs="304.10" CO2_abs="63935.36" HC_abs="2.01" PMx_abs="3.23" NOx_abs="19.64" fuel_abs="20726.72" electricity_abs="0.00"/>
    </tripinfo>
    <tripinfo id="30" depart="30.00" departLane="934293362#1_0" departPos="5.10" departSpeed="0.00" departDelay="0.00" arrival="69.00" arrivalLane="23698638#7_0" arrivalPos="62.99" arrivalSpeed="23.39" duration="39.00" routeLength="457.60" waitingTime="0.00" waitingCount="0" stopTime="0.00" timeLoss="12.05" rerouteNo="0" devices="tripinfo_30 emissions_30" vType="DEFAULT_VEHTYPE" speedFactor="1.18" vaporized="">
        <emissions CO_abs="1840.78" CO2_abs="205601.75" HC_abs="12.19" PMx_abs="14.54" NOx_abs="72.90" fuel_abs="66652.58" electricity_abs="0.00"/>
    </tripinfo>
    <tripinfo id="36" depart="36.00" departLane="27347304_0" departPos="5.10" departSpeed="0.00" departDelay="0.00" arrival="69.00" arrivalLane="-27347303#0_0" arrivalPos="66.13" arrivalSpeed="12.66" duration="33.00" routeLength="344.24" waitingTime="0.00" waitingCount="0" stopTime="0.00" timeLoss="6.00" rerouteNo="0" devices="tripinfo_36 emissions_36" vType="DEFAULT_VEHTYPE" speedFactor="0.97" vaporized="">
        <emissions CO_abs="521.00" CO2_abs="96021.91" HC_abs="3.46" PMx_abs="7.52" NOx_abs="31.59" fuel_abs="31128.84" electricity_abs="0.00"/>
    </tripinfo>
    <tripinfo id="10" depart="10.00" departLane="27201956#2_0" departPos="5.10" departSpeed="0.00" departDelay="0.00" arrival="77.00" arrivalLane="25466415#3_0" arrivalPos="45.25" arrivalSpeed="13.16" duration="67.00" routeLength="699.36" waitingTime="0.00" waitingCount="0" stopTime="0.00" timeLoss="25.18" rerouteNo="0" devices="tripinfo_10 emissions_10" vType="DEFAULT_VEHTYPE" speedFactor="1.09" vaporized="">
        <emissions CO_abs="1525.14" CO2_abs="234944.96" HC_abs="10.10" PMx_abs="17.07" NOx_abs="78.26" fuel_abs="76165.46" electricity_abs="0.00"/>
    </tripinfo>
    <tripinfo id="6" depart="6.00" departLane="-1249393725_0" departPos="5.10" departSpeed="0.00" departDelay="0.00" arrival="79.00" arrivalLane="-27189963#1_0" arrivalPos="97.86" arrivalSpeed="13.32" duration="73.00" routeLength="504.72" waitingTime="0.00" waitingCount="0" stopTime="0.00" timeLoss="20.22" rerouteNo="0" devices="tripinfo_6 emissions_6" vType="DEFAULT_VEHTYPE" speedFactor="1.05" vaporized="">
        <emissions CO_abs="1468.18" CO2_abs="216182.25" HC_abs="9.72" PMx_abs="13.05" NOx_abs="74.48" fuel_abs="70082.73" electricity_abs="0.00"/>
    </tripinfo>
    <tripinfo id="5" depart="5.00" departLane="-25466488#0_0" departPos="5.10" departSpeed="0.00" departDelay="0.00" arrival="81.00" arrivalLane="1270468051#1_0" arrivalPos="23.83" arrivalSpeed="10.67" duration="76.00" routeLength="962.98" waitingTime="0.00" waitingCount="0" stopTime="0.00" timeLoss="20.38" rerouteNo="0" devices="tripinfo_5 emissions_5" vType="DEFAULT_VEHTYPE" speedFactor="0.83" vaporized="">
        <emissions CO_abs="2789.73" CO2_abs="306395.31" HC_abs="18.54" PMx_abs="24.11" NOx_abs="109.94" fuel_abs="99328.25" electricity_abs="0.00"/>
    </tripinfo>
    <tripinfo id="1" depart="1.00" departLane="-27190001_0" departPos="5.10" departSpeed="0.00" departDelay="0.00" arrival="84.00" arrivalLane="-27190002#0_0" arrivalPos="162.07" arrivalSpeed="12.46" duration="83.00" routeLength="817.80" waitingTime="0.00" waitingCount="0" stopTime="0.00" timeLoss="19.02" rerouteNo="0" devices="tripinfo_1 emissions_1" vType="DEFAULT_VEHTYPE" speedFactor="0.94" vaporized="">
        <emissions CO_abs="1234.74" CO2_abs="233603.36" HC_abs="8.20" PMx_abs="18.88" NOx_abs="77.08" fuel_abs="75730.73" electricity_abs="0.00"/>
    </tripinfo>
    <tripinfo id="43" depart="43.00" departLane="995112306_0" departPos="5.10" departSpeed="0.00" departDelay="0.00" arrival="86.00" arrivalLane="1285825365#0_0" arrivalPos="58.54" arrivalSpeed="14.15" duration="43.00" routeLength="418.09" waitingTime="0.00" waitingCount="0" stopTime="0.00" timeLoss="15.83" rerouteNo="0" devices="tripinfo_43 emissions_43" vType="DEFAULT_VEHTYPE" speedFactor="1.04" vaporized="">
        <emissions CO_abs="1098.89" CO2_abs="168373.19" HC_abs="7.27" PMx_abs="10.81" NOx_abs="55.57" fuel_abs="54583.81" electricity_abs="0.00"/>
    </tripinfo>
    <tripinfo id="35" depart="35.00" departLane="-25466343#8_0" departPos="5.10" departSpeed="0.00" departDelay="0.00" arrival="89.00" arrivalLane="27432884_0" arrivalPos="48.89" arrivalSpeed="14.08" duration="54.00" routeLength="626.91" waitingTime="0.00" waitingCount="0" stopTime="0.00" timeLoss="20.48" rerouteNo="0" devices="tripinfo_35 emissions_35" vType="DEFAULT_VEHTYPE" speedFactor="1.02" vaporized="">
        <emissions CO_abs="2278.27" CO2_abs="262068.55" HC_abs="15.07" PMx_abs="17.25" NOx_abs="92.24" fuel_abs="84958.18" electricity_abs="0.00"/>
    </tripinfo>
    <tripinfo id="29" depart="29.00" departLane="-23698645#1_0" departPos="5.10" departSpeed="0.00" departDelay="0.00" arrival="96.00" arrivalLane="-28681578#16_0" arrivalPos="111.60" arrivalSpeed="20.36" duration="67.00" routeLength="900.29" waitingTime="0.00" waitingCount="0" stopTime="0.00" timeLoss="24.01" rerouteNo="0" devices="tripinfo_29 emissions_29" vType="DEFAULT_VEHTYPE" speedFactor="0.93" vaporized="">
        <emissions CO_abs="3741.02" CO2_abs="358013.62" HC_abs="24.81" PMx_abs="25.90" NOx_abs="132.07" fuel_abs="116061.66" electricity_abs="0.00"/>
    </tripinfo>
    <tripinfo id="39" depart="39.00" departLane="-27189985_0" departPos="5.10" departSpeed="0.00" departDelay="0.00" arrival="96.00" arrivalLane="-27201956#2_0" arrivalPos="75.16" arrivalSpeed="19.00" duration="57.00" routeLength="530.42" waitingTime="0.00" waitingCount="0" stopTime="0.00" timeLoss="16.07" rerouteNo="0" devices="tripinfo_39 emissions_39" vType="DEFAULT_VEHTYPE" speedFactor="0.90" vaporized="">
        <emissions CO_abs="1249.96" CO2_abs="197316.19" HC_abs="8.27" PMx_abs="13.39" NOx_abs="65.77" fuel_abs="63966.76" electricity_abs="0.00"/>
    </tripinfo>
    <tripinfo id="13" depart="13.00" departLane="-214202911_0" departPos="5.10" departSpeed="0.00" departDelay="0.00" arrival="101.00" arrivalLane="-214202939#0_0" arrivalPos="38.75" arrivalSpeed="14.42" duration="88.00" routeLength="885.57" waitingTime="1.00" waitingCount="1" stopTime="0.00" timeLoss="32.79" rerouteNo="0" devices="tripinfo_13 emissions_13" vType="DEFAULT_VEHTYPE" speedFactor="1.12" vaporized="">
        <emissions CO_abs="2275.48" CO2_abs="335043.48" HC_abs="15.06" PMx_abs="22.22" NOx_abs="111.89" fuel_abs="108615.59" electricity_abs="0.00"/>
    </tripinfo>
    <tripinfo id="7" depart="7.00" departLane="22976235#0_0" departPos="5.10" departSpeed="0.00" departDelay="0.00" arrival="103.00" arrivalLane="185021778_0" arrivalPos="272.45" arrivalSpeed="12.09" duration="96.00" routeLength="978.28" waitingTime="0.00" waitingCount="0" stopTime="0.00" timeLoss="29.11" rerouteNo="0" devices="tripinfo_7 emissions_7" vType="DEFAULT_VEHTYPE" speedFactor="0.89" vaporized="">
        <emissions CO_abs="2425.48" CO2_abs="339654.35" HC_abs="16.05" PMx_abs="23.37" NOx_abs="115.87" fuel_abs="110110.47" electricity_abs="0.00"/>
    </tripinfo>
    <tripinfo id="8" depart="8.00" departLane="-25466488#2_0" departPos="5.10" departSpeed="0.00" departDelay="0.00" arrival="104.00" arrivalLane="215569984#5_0" arrivalPos="124.41" arrivalSpeed="22.62" duration="96.00" routeLength="1251.27" waitingTime="0.00" waitingCount="0" stopTime="0.00" timeLoss="35.52" rerouteNo="0" devices="tripinfo_8 emissions_8" vType="DEFAULT_VEHTYPE" speedFactor="0.94" vaporized="">
        <emissions CO_abs="5083.41" CO2_abs="482002.12" HC_abs="33.78" PMx_abs="36.35" NOx_abs="178.82" fuel_abs="156256.59" electricity_abs="0.00"/>
    </tripinfo>
    <tripinfo id="44" depart="44.00" departLane="-214202907#1_0" departPos="5.10" departSpeed="0.00" departDelay="0.00" arrival="104.00" arrivalLane="-160274855#2_0" arrivalPos="72.20" arrivalSpeed="13.53" duration="60.00" routeLength="683.05" waitingTime="0.00" waitingCount="0" stopTime="0.00" timeLoss="16.29" rerouteNo="0" devices="tripinfo_44 emissions_44" vType="DEFAULT_VEHTYPE" speedFactor="1.04" vaporized="">
        <emissions CO_abs="1721.94" CO2_abs="226471.16" HC_abs="11.41" PMx_abs="16.71" NOx_abs="78.08" fuel_abs="73418.31" electricity_abs="0.00"/>
    </tripinfo>
    <tripinfo id="51" depart="51.00" departLane="-27189990_0" departPos="5.10" departSpeed="0.00" departDelay="0.00" arrival="105.00" arrivalLane="23698638#8_0" arrivalPos="62.33" arrivalSpeed="19.05" duration="54.00" routeLength="764.15" waitingTime="0.00" waitingCount="0" stopTime="0.00" timeLoss="18.71" rerouteNo="0" devices="tripinfo_51 emissions_51" vType="DEFAULT_VEHTYPE" speedFactor="1.17" vaporized="">
        <emissions CO_abs="2934.07" CO2_abs="284424.31" HC_abs="19.52" PMx_abs="22.05" NOx_abs="104.13" fuel_abs="92205.40" electricity_abs="0.00"/>
    </tripinfo>
    <tripinfo id="20" depart="20.00" departLane="25466343#10_0" departPos="5.10" departSpeed="0.00" departDelay="0.00" arrival="106.00" arrivalLane="-160274855#0_0" arrivalPos="89.01" arrivalSpeed="13.42" duration="86.00" routeLength="1161.86" waitingTime="0.00" waitingCount="0" stopTime="0.00" timeLoss="25.89" rerouteNo="0" devices="tripinfo_20 emissions_20" vType="DEFAULT_VEHTYPE" speedFactor="1.02" vaporized="">
        <emissions CO_abs="4493.30" CO2_abs="419420.73" HC_abs="29.85" PMx_abs="32.98" NOx_abs="156.95" fuel_abs="135968.84" electricity_abs="0.00"/>
    </tripinfo>
    <tripinfo id="14" depart="14.00" departLane="27346854#3_0" departPos="5.10" departSpeed="0.00" departDelay="0.00" arrival="107.00" arrivalLane="23634200#0_0" arrivalPos="9.07" arrivalSpeed="10.15" duration="93.00" routeLength="1216.35" waitingTime="1.00" waitingCount="1" stopTime="0.00" timeLoss="31.42" rerouteNo="0" devices="tripinfo_14 emissions_14" vType="DEFAULT_VEHTYPE" speedFactor="0.99" vaporized="">
        <emissions CO_abs="4549.02" CO2_abs="441609.71" HC_abs="30.17" PMx_abs="32.46" NOx_abs="163.34" fuel_abs="143162.08" electricity_abs="0.00"/>
    </tripinfo>
    <tripinfo id="23" depart="23.00" departLane="-214202939#0_0" departPos="5.10" departSpeed="0.00" departDelay="0.00" arrival="109.00" arrivalLane="-27346846_0" arrivalPos="213.69" arrivalSpeed="11.77" duration="86.00" routeLength="822.36" waitingTime="0.00" waitingCount="0" stopTime="0.00" timeLoss="27.80" rerouteNo="0" devices="tripinfo_23 emissions_23" vType="DEFAULT_VEHTYPE" speedFactor="0.89" vaporized="">
        <emissions CO_abs="2197.18" CO2_abs="300017.60" HC_abs="14.54" PMx_abs="20.06" NOx_abs="102.92" fuel_abs="97260.74" electricity_abs="0.00"/>
    </tripinfo>
    <tripinfo id="62" depart="62.00" departLane="-27201956#2_0" departPos="5.10" departSpeed="0.00" departDelay="0.00" arrival="110.00" arrivalLane="-184744473_0" arrivalPos="170.85" arrivalSpeed="13.16" duration="48.00" routeLength="532.65" waitingTime="0.00" waitingCount="0" stopTime="0.00" timeLoss="17.87" rerouteNo="0" devices="tripinfo_62 emissions_62" vType="DEFAULT_VEHTYPE" speedFactor="1.02" vaporized="">
        <emissions CO_abs="1572.81" CO2_abs="201747.96" HC_abs="10.41" PMx_abs="13.16" NOx_abs="68.85" fuel_abs="65403.23" electricity_abs="0.00"/>
    </tripinfo>
    <tripinfo id="34" depart="34.00" departLane="-27201956#5_0" departPos="5.10" departSpeed="0.00" departDelay="0.00" arrival="111.00" arrivalLane="-27202364#1_0" arrivalPos="98.29" arrivalSpeed="20.13" duration="77.00" routeLength="1136.26" waitingTime="0.00" waitingCount="0" stopTime="0.00" timeLoss="16.11" rerouteNo="0" devices="tripinfo_34 emissions_34" vType="DEFAULT_VEHTYPE" speedFactor="0.99" vaporized="">
        <emissions CO_abs="2818.03" CO2_abs="309574.69" HC_abs="18.87" PMx_abs="30.80" NOx_abs="111.48" fuel_abs="100359.28" electricity_abs="0.00"/>
    </tripinfo>
    <tripinfo id="19" depart="19.00" departLane="27346860#0_0" departPos="5.10" departSpeed="0.00" departDelay="0.00" arrival="114.00" arrivalLane="214379317#1_0" arrivalPos="31.83" arrivalSpeed="13.52" duration="95.00" routeLength="1201.66" waitingTime="1.00" waitingCount="1" stopTime="0.00" timeLoss="36.39" rerouteNo="0" devices="tripinfo_19 emissions_19" vType="DEFAULT_VEHTYPE" speedFactor="1.16" vaporized="">
        <emissions CO_abs="5028.21" CO2_abs="488060.99" HC_abs="33.31" PMx_abs="35.21" NOx_abs="181.40" fuel_abs="158220.87" electricity_abs="0.00"/>
    </tripinfo>
    <tripinfo id="38" depart="38.00" departLane="27347951#1_0" departPos="5.10" departSpeed="0.00" departDelay="0.00" arrival="114.00" arrivalLane="1211074476#4_0" arrivalPos="115.16" arrivalSpeed="30.04" duration="76.00" routeLength="865.85" waitingTime="13.00" waitingCount="1" stopTime="0.00" timeLoss="38.60" rerouteNo="0" devices="tripinfo_38 emissions_38" vType="DEFAULT_VEHTYPE" speedFactor="1.10" vaporized="">
        <emissions CO_abs="4935.31" CO2_abs="423391.16" HC_abs="32.73" PMx_abs="28.96" NOx_abs="163.55" fuel_abs="137255.64" electricity_abs="0.00"/>
    </tripinfo>
    <tripinfo id="26" depart="26.00" departLane="-27189990_0" departPos="5.10" departSpeed="0.00" departDelay="0.00" arrival="118.00" arrivalLane="27432184#0_0" arrivalPos="60.92" arrivalSpeed="11.92" duration="92.00" routeLength="839.26" waitingTime="11.00" waitingCount="1" stopTime="0.00" timeLoss="41.35" rerouteNo="0" devices="tripinfo_26 emissions_26" vType="DEFAULT_VEHTYPE" speedFactor="0.92" vaporized="">
        <emissions CO_abs="2734.55" CO2_abs="356269.89" HC_abs="18.11" PMx_abs="22.75" NOx_abs="124.96" fuel_abs="115496.88" electricity_abs="0.00"/>
    </tripinfo>
    <tripinfo id="40" depart="40.00" departLane="1340467633#2_0" departPos="5.10" departSpeed="0.00" departDelay="0.00" arrival="119.00" arrivalLane="-27202330#0_0" arrivalPos="134.98" arrivalSpeed="13.45" duration="79.00" routeLength="1021.72" waitingTime="0.00" waitingCount="0" stopTime="0.00" timeLoss="21.74" rerouteNo="0" devices="tripinfo_40 emissions_40" vType="DEFAULT_VEHTYPE" speedFactor="1.03" vaporized="">
        <emissions CO_abs="3609.85" CO2_abs="363930.25" HC_abs="23.99" PMx_abs="29.38" NOx_abs="133.88" fuel_abs="117979.96" electricity_abs="0.00"/>
    </tripinfo>
    <tripinfo id="27" depart="27.00" departLane="218221718#5_0" departPos="5.10" departSpeed="0.00" departDelay="0.00" arrival="122.00" arrivalLane="23634200#6_0" arrivalPos="528.11" arrivalSpeed="12.59" duration="95.00" routeLength="1068.50" waitingTime="0.00" waitingCount="0" stopTime="0.00" timeLoss="12.12" rerouteNo="0" devices="tripinfo_27 emissions_27" vType="DEFAULT_VEHTYPE" speedFactor="0.95" vaporized="">
        <emissions CO_abs="1236.58" CO2_abs="235619.85" HC_abs="8.25" PMx_abs="23.85" NOx_abs="80.15" fuel_abs="76384.77" electricity_abs="0.00"/>
    </tripinfo>
    <tripinfo id="46" depart="46.00" departLane="27201854#3_0" departPos="5.10" departSpeed="0.00" departDelay="0.00" arrival="122.00" arrivalLane="1016263227#1_0" arrivalPos="122.35" arrivalSpeed="13.27" duration="76.00" routeLength="947.91" waitingTime="0.00" waitingCount="0" stopTime="0.00" timeLoss="26.24" rerouteNo="0" devices="tripinfo_46 emissions_46" vType="DEFAULT_VEHTYPE" speedFactor="1.00" vaporized="">
        <emissions CO_abs="3404.74" CO2_abs="362928.41" HC_abs="22.57" PMx_abs="26.68" NOx_abs="131.25" fuel_abs="117655.20" electricity_abs="0.00"/>
    </tripinfo>
    <tripinfo id="68" depart="68.00" departLane="-27347951#1_0" departPos="5.10" departSpeed="0.00" departDelay="0.00" arrival="125.00" arrivalLane="-27189993#0_0" arrivalPos="64.59" arrivalSpeed="13.38" duration="57.00" routeLength="559.74" waitingTime="0.00" waitingCount="0" stopTime="0.00" timeLoss="18.76" rerouteNo="0" devices="tripinfo_68 emissions_68" vType="DEFAULT_VEHTYPE" speedFactor="1.04" vaporized="">
        <emissions CO_abs="1353.39" CO2_abs="205688.20" HC_abs="8.96" PMx_abs="14.24" NOx_abs="69.17" fuel_abs="66680.86" electricity_abs="0.00"/>
    </tripinfo>
    <tripinfo id="9" depart="9.00" departLane="27201956#4_0" departPos="5.10" departSpeed="0.00" departDelay="0.00" arrival="126.00" arrivalLane="-102482926#0_0" arrivalPos="57.12" arrivalSpeed="10.78" duration="117.00" routeLength="1285.13" waitingTime="0.00" waitingCount="0" stopTime="0.00" timeLoss="27.50" rerouteNo="0" devices="tripinfo_9 emissions_9" vType="DEFAULT_VEHTYPE" speedFactor="0.86" vaporized="">
        <emissions CO_abs="2379.70" CO2_abs="357036.63" HC_abs="15.84" PMx_abs="30.17" NOx_abs="121.40" fuel_abs="115745.81" electricity_abs="0.00"/>
    </tripinfo>
    <tripinfo id="50" depart="50.00" departLane="25459576#0_0" departPos="5.10" departSpeed="0.00" departDelay="0.00" arrival="126.00" arrivalLane="160274864_0" arrivalPos="157.62" arrivalSpeed="11.34" duration="76.00" routeLength="944.11" waitingTime="0.00" waitingCount="0" stopTime="0.00" timeLoss="16.05" rerouteNo="0" devices="tripinfo_50 emissions_50" vType="DEFAULT_VEHTYPE" speedFactor="0.85" vaporized="">
        <emissions CO_abs="2137.05" CO2_abs="263965.27" HC_abs="14.28" PMx_abs="24.11" NOx_abs="93.01" fuel_abs="85573.44" electricity_abs="0.00"/>
    </tripinfo>
    <tripinfo id="95" depart="95.00" departLane="995112311_0" departPos="5.10" departSpeed="0.00" departDelay="0.00" arrival="128.00" arrivalLane="27202330#5_0" arrivalPos="27.76" arrivalSpeed="14.48" duration="33.00" routeLength="256.12" waitingTime="0.00" waitingCount="0" stopTime="0.00" timeLoss="12.36" rerouteNo="0" devices="tripinfo_95 emissions_95" vType="DEFAULT_VEHTYPE" speedFactor="1.06" vaporized="">
        <emissions CO_abs="671.54" CO2_abs="125755.38" HC_abs="4.43" PMx_abs="7.09" NOx_abs="39.94" fuel_abs="40767.81" electricity_abs="0.00"/>
    </tripinfo>
    <tripinfo id="3" depart="3.00" departLane="27347435#1_0" departPos="5.10" departSpeed="0.00" departDelay="0.00" arrival="129.00" arrivalLane="-214202907#1_0" arrivalPos="113.63" arrivalSpeed="14.06" duration="126.00" routeLength="1575.88" waitingTime="0.00" waitingCount="0" stopTime="0.00" timeLoss="37.83" rerouteNo="0" devices="tripinfo_3 emissions_3" vType="DEFAULT_VEHTYPE" speedFactor="1.08" vaporized="">
        <emissions CO_abs="5313.43" CO2_abs="553326.24" HC_abs="35.23" PMx_abs="41.66" NOx_abs="201.11" fuel_abs="179378.89" electricity_abs="0.00"/>
    </tripinfo>
    <tripinfo id="82" depart="82.00" departLane="-412956333#2_0" departPos="5.10" departSpeed="0.00" departDelay="0.00" arrival="137.00" arrivalLane="27201848_0" arrivalPos="217.25" arrivalSpeed="13.15" duration="55.00" routeLength="561.71" waitingTime="0.00" waitingCount="0" stopTime="0.00" timeLoss="17.37" rerouteNo="0" devices="tripinfo_82 emissions_82" vType="DEFAULT_VEHTYPE" speedFactor="1.02" vaporized="">
        <emissions CO_abs="1252.44" CO2_abs="194684.75" HC_abs="8.29" PMx_abs="13.52" NOx_abs="64.63" fuel_abs="63113.68" electricity_abs="0.00"/>
    </tripinfo>
    <tripinfo id="16" depart="16.00" departLane="1229033621#0_0" departPos="5.10" departSpeed="0.00" departDelay="0.00" arrival="138.00" arrivalLane="34256966#4_0" arrivalPos="53.53" arrivalSpeed="11.37" duration="122.00" routeLength="1603.27" waitingTime="0.00" waitingCount="0" stopTime="0.00" timeLoss="41.51" rerouteNo="0" devices="tripinfo_16 emissions_16" vType="DEFAULT_VEHTYPE" speedFactor="0.88" vaporized="">
        <emissions CO_abs="6266.20" CO2_abs="610360.51" HC_abs="41.61" PMx_abs="46.68" NOx_abs="225.38" fuel_abs="197868.31" electricity_abs="0.00"/>
    </tripinfo>
    <tripinfo id="11" depart="11.00" departLane="-27202430_0" departPos="5.10" departSpeed="0.00" departDelay="0.00" arrival="139.00" arrivalLane="-25466310#0_0" arrivalPos="308.85" arrivalSpeed="5.82" duration="128.00" routeLength="1484.81" waitingTime="10.00" waitingCount="1" stopTime="0.00" timeLoss="49.29" rerouteNo="0" devices="tripinfo_11 emissions_11" vType="DEFAULT_VEHTYPE" speedFactor="1.03" vaporized="">
        <emissions CO_abs="5892.86" CO2_abs="536691.89" HC_abs="39.35" PMx_abs="42.85" NOx_abs="205.43" fuel_abs="173986.34" electricity_abs="0.00"/>
    </tripinfo>
    <tripinfo id="61" depart="61.00" departLane="-1196382376_0" departPos="5.10" departSpeed="0.00" departDelay="0.00" arrival="139.00" arrivalLane="27347956_0" arrivalPos="124.11" arrivalSpeed="14.79" duration="78.00" routeLength="838.34" waitingTime="2.00" waitingCount="1" stopTime="0.00" timeLoss="28.19" rerouteNo="0" devices="tripinfo_61 emissions_61" vType="DEFAULT_VEHTYPE" speedFactor="1.12" vaporized="">
        <emissions CO_abs="2511.45" CO2_abs="303867.58" HC_abs="16.65" PMx_abs="21.79" NOx_abs="107.43" fuel_abs="98508.81" electricity_abs="0.00"/>
    </tripinfo>
    <tripinfo id="28" depart="28.00" departLane="-25459576#1_0" departPos="5.10" departSpeed="0.00" departDelay="0.00" arrival="140.00" arrivalLane="25593863#2_0" arrivalPos="587.23" arrivalSpeed="15.16" duration="112.00" routeLength="1703.42" waitingTime="0.00" waitingCount="0" stopTime="0.00" timeLoss="26.20" rerouteNo="0" devices="tripinfo_28 emissions_28" vType="DEFAULT_VEHTYPE" speedFactor="1.13" vaporized="">
        <emissions CO_abs="5750.58" CO2_abs="508349.24" HC_abs="38.25" PMx_abs="44.49" NOx_abs="194.85" fuel_abs="164797.96" electricity_abs="0.00"/>
    </tripinfo>
    <tripinfo id="108" depart="108.00" departLane="-23698638#3_0" departPos="5.10" departSpeed="0.00" departDelay="0.00" arrival="141.00" arrivalLane="28682074#5_0" arrivalPos="126.33" arrivalSpeed="13.97" duration="33.00" routeLength="434.64" waitingTime="0.00" waitingCount="0" stopTime="0.00" timeLoss="8.82" rerouteNo="0" devices="tripinfo_108 emissions_108" vType="DEFAULT_VEHTYPE" speedFactor="1.06" vaporized="">
        <emissions CO_abs="1337.44" CO2_abs="149561.11" HC_abs="8.88" PMx_abs="12.44" NOx_abs="53.92" fuel_abs="48485.24" electricity_abs="0.00"/>
    </tripinfo>
    <tripinfo id="17" depart="17.00" departLane="-27346863_0" departPos="5.10" departSpeed="0.00" departDelay="0.00" arrival="142.00" arrivalLane="207139556_0" arrivalPos="114.36" arrivalSpeed="12.65" duration="125.00" routeLength="1459.04" waitingTime="0.00" waitingCount="0" stopTime="0.00" timeLoss="37.30" rerouteNo="0" devices="tripinfo_17 emissions_17" vType="DEFAULT_VEHTYPE" speedFactor="0.94" vaporized="">
        <emissions CO_abs="4409.66" CO2_abs="510341.07" HC_abs="29.24" PMx_abs="37.34" NOx_abs="180.48" fuel_abs="165444.03" electricity_abs="0.00"/>
    </tripinfo>
    <tripinfo id="57" depart="57.00" departLane="214202907#0_0" departPos="5.10" departSpeed="0.00" departDelay="0.00" arrival="144.00" arrivalLane="-25466310#0_0" arrivalPos="308.85" arrivalSpeed="31.41" duration="87.00" routeLength="1377.88" waitingTime="3.00" waitingCount="1" stopTime="0.00" timeLoss="28.82" rerouteNo="0" devices="tripinfo_57 emissions_57" vType="DEFAULT_VEHTYPE" speedFactor="1.14" vaporized="">
        <emissions CO_abs="6858.00" CO2_abs="532501.00" HC_abs="45.76" PMx_abs="44.99" NOx_abs="209.27" fuel_abs="172626.99" electricity_abs="0.00"/>
    </tripinfo>
    <tripinfo id="85" depart="85.00" departLane="-27347951#1_0" departPos="5.10" departSpeed="0.00" departDelay="0.00" arrival="149.00" arrivalLane="1229033616#2_1" arrivalPos="34.07" arrivalSpeed="12.17" duration="64.00" routeLength="561.29" waitingTime="1.00" waitingCount="1" stopTime="0.00" timeLoss="28.56" rerouteNo="0" devices="tripinfo_85 emissions_85" vType="DEFAULT_VEHTYPE" speedFactor="0.98" vaporized="">
        <emissions CO_abs="1641.33" CO2_abs="249187.39" HC_abs="10.85" PMx_abs="14.92" NOx_abs="82.59" fuel_abs="80782.40" electricity_abs="0.00"/>
    </tripinfo>
    <tripinfo id="93" depart="93.00" departLane="-27432884_0" departPos="5.10" departSpeed="0.00" departDelay="0.00" arrival="150.00" arrivalLane="27346854#4_0" arrivalPos="152.87" arrivalSpeed="12.15" duration="57.00" routeLength="573.05" waitingTime="0.00" waitingCount="0" stopTime="0.00" timeLoss="17.82" rerouteNo="0" devices="tripinfo_93 emissions_93" vType="DEFAULT_VEHTYPE" speedFactor="0.92" vaporized="">
        <emissions CO_abs="1517.42" CO2_abs="212133.62" HC_abs="10.04" PMx_abs="14.24" NOx_abs="72.14" fuel_abs="68770.28" electricity_abs="0.00"/>
    </tripinfo>
    <tripinfo id="98" depart="98.00" departLane="-995112305#1_0" departPos="5.10" departSpeed="0.00" departDelay="0.00" arrival="150.00" arrivalLane="-27189994#0_0" arrivalPos="25.38" arrivalSpeed="13.50" duration="52.00" routeLength="428.42" waitingTime="6.00" waitingCount="1" stopTime="0.00" timeLoss="22.68" rerouteNo="0" devices="tripinfo_98 emissions_98" vType="DEFAULT_VEHTYPE" speedFactor="1.12" vaporized="">
        <emissions CO_abs="974.16" CO2_abs="174285.94" HC_abs="6.45" PMx_abs="11.02" NOx_abs="57.65" fuel_abs="56500.73" electricity_abs="0.00"/>
    </tripinfo>
    <tripinfo id="56" depart="56.00" departLane="-27201935_0" departPos="5.10" departSpeed="0.00" departDelay="0.00" arrival="151.00" arrivalLane="23698638#6_0" arrivalPos="49.07" arrivalSpeed="14.93" duration="95.00" routeLength="992.33" waitingTime="0.00" waitingCount="0" stopTime="0.00" timeLoss="23.12" rerouteNo="0" devices="tripinfo_56 emissions_56" vType="DEFAULT_VEHTYPE" speedFactor="0.90" vaporized="">
        <emissions CO_abs="2261.22" CO2_abs="321851.78" HC_abs="15.01" PMx_abs="25.38" NOx_abs="110.65" fuel_abs="104339.32" electricity_abs="0.00"/>
    </tripinfo>
    <tripinfo id="94" depart="94.00" departLane="1285825365#0_0" departPos="5.10" departSpeed="0.00" departDelay="0.00" arrival="151.00" arrivalLane="-160274857_0" arrivalPos="111.02" arrivalSpeed="14.44" duration="57.00" routeLength="659.12" waitingTime="0.00" waitingCount="0" stopTime="0.00" timeLoss="20.97" rerouteNo="0" devices="tripinfo_94 emissions_94" vType="DEFAULT_VEHTYPE" speedFactor="1.09" vaporized="">
        <emissions CO_abs="2046.76" CO2_abs="243595.02" HC_abs="13.55" PMx_abs="17.22" NOx_abs="85.42" fuel_abs="78969.41" electricity_abs="0.00"/>
    </tripinfo>
    <tripinfo id="97" depart="97.00" departLane="27346854#3_0" departPos="5.10" departSpeed="0.00" departDelay="0.00" arrival="151.00" arrivalLane="-25466343#6_0" arrivalPos="51.74" arrivalSpeed="15.82" duration="54.00" routeLength="554.39" waitingTime="0.00" waitingCount="0" stopTime="0.00" timeLoss="19.00" rerouteNo="0" devices="tripinfo_97 emissions_97" vType="DEFAULT_VEHTYPE" speedFactor="0.91" vaporized="">
        <emissions CO_abs="1581.40" CO2_abs="207959.66" HC_abs="10.47" PMx_abs="14.26" NOx_abs="71.11" fuel_abs="67417.09" electricity_abs="0.00"/>
    </tripinfo>
    <tripinfo id="107" depart="107.00" departLane="1093710256#1_0" departPos="5.10" departSpeed="0.00" departDelay="0.00" arrival="160.00" arrivalLane="27346849_0" arrivalPos="104.13" arrivalSpeed="14.30" duration="53.00" routeLength="528.83" waitingTime="1.00" waitingCount="1" stopTime="0.00" timeLoss="24.26" rerouteNo="0" devices="tripinfo_107 emissions_107" vType="DEFAULT_VEHTYPE" speedFactor="1.03" vaporized="">
        <emissions CO_abs="1767.32" CO2_abs="228123.53" HC_abs="11.69" PMx_abs="14.58" NOx_abs="78.57" fuel_abs="73953.73" electricity_abs="0.00"/>
    </tripinfo>