<?xml version="1.0" encoding="UTF-8"?>

<!-- generated on 2026-02-20T10:42:41.452823+05:30 by Eclipse SUMO GUI 1.26.0
<sumoConfiguration xmlns:xsi="http://www.w3.org/2001/XMLSchema-instance" xsi:noNamespaceSchemaLocation="http://sumo.dlr.de/xsd/sumoConfiguration.xsd">

    <input>
        <net-file value="config/../network/network.net.xml"/>
        <route-files value="config/../routes/map.rou.xml"/>
    </input>

    <output>
        <emission-output value="config/../output/emission.xml"/>
        <tripinfo-output value="config/../output/tripinfo.xml"/>
    </output>

    <time>
        <begin value="0"/>
        <end value="1500"/>
    </time>

    <traci_server>
        <remote-port value="28957"/>
    </traci_server>

</sumoConfiguration>
-->

<tripinfos xmlns:xsi="http://www.w3.org/2001/XMLSchema-instance" xsi:noNamespaceSchemaLocation="http://sumo.dlr.de/xsd/tripinfo_file.xsd">
    <tripinfo id="53" depart="53.00" departLane="-28682073#2_0" departPos="5.10" departSpeed="0.00" departDelay="0.00" arrival="67.00" arrivalLane="28682073#2_0" arrivalPos="47.73" arrivalSpeed="14.01" duration="14.00" routeLength="95.86" waitingTime="0.00" waitingCount="0" stopTime="0.00" timeLoss="6.49" rerouteNo="0" devices="tripinfo_53 emissions_53" vType="DEFAULT_VEHTYPE" speedFactor="1.03" vaporized="">
        <emissions CO_abs="305.54" CO2_abs="61561.20" HC_abs="2.01" PMx_abs="2.95" NOx_abs="18.98" fuel_abs="19957.05" electricity_abs="0.00"/>
    </tripinfo>
    <tripinfo id="emergency_1" depart="50.00" departLane="-27347951#0_0" departPos="5.10" departSpeed="0.00" departDelay="0.00" arrival="93.00" arrivalLane="-1270468053_0" arrivalPos="60.77" arrivalSpeed="14.72" duration="43.00" routeLength="535.32" waitingTime="0.00" waitingCount="0" stopTime="0.00" timeLoss="11.50" rerouteNo="0" devices="tripinfo_emergency_1 emissions_emergency_1" vType="emergency" speedFactor="1.06" vaporized="">
        <emissions CO_abs="2416.75" CO2_abs="245779.45" HC_abs="16.00" PMx_abs="16.51" NOx_abs="88.89" fuel_abs="79677.43" electricity_abs="0.00"/>
    </tripinfo>
    <tripinfo id="51" depart="51.00" departLane="-27189990_0" departPos="5.10" departSpeed="0.00" departDelay="0.00" arrival="105.00" arrivalLane="23698638#8_0" arrivalPos="62.33" arrivalSpeed="19.71" duration="54.00" routeLength="764.15" waitingTime="0.00" waitingCount="0" stopTime="0.00" timeLoss="13.26" rerouteNo="0" devices="tripinfo_51 emissions_51" vType="DEFAULT_VEHTYPE" speedFactor="1.01" vaporized="">
        <emissions CO_abs="2397.01" CO2_abs="247988.10" HC_abs="15.95" PMx_abs="20.48" NOx_abs="89.97" fuel_abs="80393.60" electricity_abs="0.00"/>
    </tripinfo>
    <tripinfo id="62" depart="62.00" departLane="-27201956#2_0" departPos="5.10" departSpeed="0.00" departDelay="0.00" arrival="108.00" arrivalLane="-184744473_0" arrivalPos="170.85" arrivalSpeed="14.72" duration="46.00" routeLength="532.65" waitingTime="0.00" waitingCount="0" stopTime="0.00" timeLoss="17.93" rerouteNo="0" devices="tripinfo_62 emissions_62" vType="DEFAULT_VEHTYPE" speedFactor="1.12" vaporized="">
        <emissions CO_abs="1942.98" CO2_abs="223447.73" HC_abs="12.87" PMx_abs="15.59" NOx_abs="78.46" fuel_abs="72437.88" electricity_abs="0.00"/>
    </tripinfo>
    <tripinfo id="50" depart="50.00" departLane="25459576#0_0" departPos="5.10" departSpeed="0.00" departDelay="0.00" arrival="122.00" arrivalLane="160274864_0" arrivalPos="157.62" arrivalSpeed="12.39" duration="72.00" routeLength="944.11" waitingTime="0.00" waitingCount="0" stopTime="0.00" timeLoss="16.81" rerouteNo="0" devices="tripinfo_50 emissions_50" vType="DEFAULT_VEHTYPE" speedFactor="0.94" vaporized="">
        <emissions CO_abs="2478.13" CO2_abs="276498.56" HC_abs="16.56" PMx_abs="25.34" NOx_abs="99.53" fuel_abs="89636.43" electricity_abs="0.00"/>
    </tripinfo>
    <tripinfo id="68" depart="68.00" departLane="-27347951#1_0" departPos="5.10" departSpeed="0.00" departDelay="0.00" arrival="123.00" arrivalLane="-27189993#0_0" arrivalPos="64.59" arrivalSpeed="15.76" duration="55.00" routeLength="559.74" waitingTime="0.00" waitingCount="0" stopTime="0.00" timeLoss="20.79" rerouteNo="0" devices="tripinfo_68 emissions_68" vType="DEFAULT_VEHTYPE" speedFactor="1.16" vaporized="">
        <emissions CO_abs="1608.19" CO2_abs="221831.05" HC_abs="10.64" PMx_abs="14.44" NOx_abs="74.87" fuel_abs="71913.96" electricity_abs="0.00"/>
    </tripinfo>
    <tripinfo id="95" depart="95.00" departLane="995112311_0" departPos="5.10" departSpeed="0.00" departDelay="0.00" arrival="128.00" arrivalLane="27202330#5_0" arrivalPos="27.76" arrivalSpeed="13.61" duration="33.00" routeLength="256.12" waitingTime="0.00" waitingCount="0" stopTime="0.00" timeLoss="11.23" rerouteNo="0" devices="tripinfo_95 emissions_95" vType="DEFAULT_VEHTYPE" speedFactor="1.00" vaporized="">
        <emissions CO_abs="661.56" CO2_abs="123614.24" HC_abs="4.37" PMx_abs="6.88" NOx_abs="39.13" fuel_abs="40073.69" electricity_abs="0.00"/>
    </tripinfo>
    <tripinfo id="82" depart="82.00" departLane="-412956333#2_0" departPos="5.10" departSpeed="0.00" departDelay="0.00" arrival="133.00" arrivalLane="27201848_0" arrivalPos="217.25" arrivalSpeed="15.51" duration="51.00" routeLength="561.71" waitingTime="0.00" waitingCount="0" stopTime="0.00" timeLoss="18.70" rerouteNo="0" devices="tripinfo_82 emissions_82" vType="DEFAULT_VEHTYPE" speedFactor="1.17" vaporized="">
        <emissions CO_abs="1493.85" CO2_abs="204004.05" HC_abs="9.89" PMx_abs="14.10" NOx_abs="69.02" fuel_abs="66134.80" electricity_abs="0.00"/>
    </tripinfo>
    <tripinfo id="61" depart="61.00" departLane="-1196382376_0" departPos="5.10" departSpeed="0.00" departDelay="0.00" arrival="139.00" arrivalLane="27347956_0" arrivalPos="124.11" arrivalSpeed="13.86" duration="78.00" routeLength="838.34" waitingTime="0.00" waitingCount="0" stopTime="0.00" timeLoss="24.88" rerouteNo="0" devices="tripinfo_61 emissions_61" vType="DEFAULT_VEHTYPE" speedFactor="1.05" vaporized="">
        <emissions CO_abs="2462.19" CO2_abs="297184.94" HC_abs="16.32" PMx_abs="21.83" NOx_abs="105.03" fuel_abs="96342.34" electricity_abs="0.00"/>
    </tripinfo>
    <tripinfo id="80" depart="80.00" departLane="-25466485#3_0" departPos="5.10" departSpeed="0.00" departDelay="0.00" arrival="140.00" arrivalLane="-23698638#6_0" arrivalPos="49.07" arrivalSpeed="24.52" duration="60.00" routeLength="882.54" waitingTime="0.00" waitingCount="0" stopTime="0.00" timeLoss="19.24" rerouteNo="0" devices="tripinfo_80 emissions_80" vType="DEFAULT_VEHTYPE" speedFactor="1.15" vaporized="">
        <emissions CO_abs="4198.37" CO2_abs="367483.66" HC_abs="27.87" PMx_abs="27.77" NOx_abs="138.80" fuel_abs="119131.59" electricity_abs="0.00"/>
    </tripinfo>
    <tripinfo id="103" depart="103.00" departLane="1298086754_0" departPos="5.10" departSpeed="0.00" departDelay="0.00" arrival="143.00" arrivalLane="25593833#1_0" arrivalPos="105.95" arrivalSpeed="13.86" duration="40.00" routeLength="369.27" waitingTime="0.00" waitingCount="0" stopTime="0.00" timeLoss="14.73" rerouteNo="0" devices="tripinfo_103 emissions_103" vType="DEFAULT_VEHTYPE" speedFactor="1.00" vaporized="">
        <emissions CO_abs="724.00" CO2_abs="130926.37" HC_abs="4.80" PMx_abs="9.14" NOx_abs="42.71" fuel_abs="42444.27" electricity_abs="0.00"/>
    </tripinfo>
    <tripinfo id="108" depart="108.00" departLane="-23698638#3_0" departPos="5.10" departSpeed="0.00" departDelay="0.00" arrival="144.00" arrivalLane="28682074#5_0" arrivalPos="126.33" arrivalSpeed="13.12" duration="36.00" routeLength="434.64" waitingTime="0.00" waitingCount="0" stopTime="0.00" timeLoss="9.27" rerouteNo="0" devices="tripinfo_108 emissions_108" vType="DEFAULT_VEHTYPE" speedFactor="0.97" vaporized="">
        <emissions CO_abs="1093.54" CO2_abs="138768.57" HC_abs="7.27" PMx_abs="11.30" NOx_abs="48.51" fuel_abs="44986.54" electricity_abs="0.00"/>
    </tripinfo>
    <tripinfo id="93" depart="93.00" departLane="-27432884_0" departPos="5.10" departSpeed="0.00" departDelay="0.00" arrival="145.00" arrivalLane="27346854#4_0" arrivalPos="152.87" arrivalSpeed="13.72" duration="52.00" routeLength="573.05" waitingTime="0.00" waitingCount="0" stopTime="0.00" timeLoss="16.70" rerouteNo="0" devices="tripinfo_93 emissions_93" vType="DEFAULT_VEHTYPE" speedFactor="1.04" vaporized="">
        <emissions CO_abs="1668.00" CO2_abs="215344.73" HC_abs="11.04" PMx_abs="15.72" NOx_abs="74.67" fuel_abs="69811.28" electricity_abs="0.00"/>
    </tripinfo>
    <tripinfo id="57" depart="57.00" departLane="214202907#0_0" departPos="5.10" departSpeed="0.00" departDelay="0.00" arrival="147.00" arrivalLane="-25466310#0_0" arrivalPos="308.85" arrivalSpeed="25.17" duration="90.00" routeLength="1377.88" waitingTime="0.00" waitingCount="0" stopTime="0.00" timeLoss="18.86" rerouteNo="0" devices="tripinfo_57 emissions_57" vType="DEFAULT_VEHTYPE" speedFactor="0.94" vaporized="">
        <emissions CO_abs="4520.15" CO2_abs="412811.19" HC_abs="30.23" PMx_abs="38.97" NOx_abs="154.81" fuel_abs="133826.43" electricity_abs="0.00"/>
    </tripinfo>
    <tripinfo id="85" depart="85.00" departLane="-27347951#1_0" departPos="5.10" departSpeed="0.00" departDelay="0.00" arrival="148.00" arrivalLane="1229033616#2_1" arrivalPos="34.07" arrivalSpeed="12.65" duration="63.00" routeLength="561.29" waitingTime="1.00" waitingCount="1" stopTime="0.00" timeLoss="27.29" rerouteNo="0" devices="tripinfo_85 emissions_85" vType="DEFAULT_VEHTYPE" speedFactor="0.97" vaporized="">
        <emissions CO_abs="1678.80" CO2_abs="252501.86" HC_abs="11.10" PMx_abs="15.27" NOx_abs="83.60" fuel_abs="81856.86" electricity_abs="0.00"/>
    </tripinfo>
    <tripinfo id="97" depart="97.00" departLane="27346854#3_0" departPos="5.10" departSpeed="0.00" departDelay="0.00" arrival="150.00" arrivalLane="-25466343#6_0" arrivalPos="51.74" arrivalSpeed="16.23" duration="53.00" routeLength="554.39" waitingTime="0.00" waitingCount="0" stopTime="0.00" timeLoss="16.78" rerouteNo="0" devices="tripinfo_97 emissions_97" vType="DEFAULT_VEHTYPE" speedFactor="0.88" vaporized="">
        <emissions CO_abs="1649.07" CO2_abs="217568.36" HC_abs="10.92" PMx_abs="15.14" NOx_abs="74.85" fuel_abs="70532.12" electricity_abs="0.00"/>
    </tripinfo>
    <tripinfo id="98" depart="98.00" departLane="-995112305#1_0" departPos="5.10" departSpeed="0.00" departDelay="0.00" arrival="150.00" arrivalLane="-27189994#0_0" arrivalPos="25.38" arrivalSpeed="10.45" duration="52.00" routeLength="428.42" waitingTime="0.00" waitingCount="0" stopTime="0.00" timeLoss="13.72" rerouteNo="0" devices="tripinfo_98 emissions_98" vType="DEFAULT_VEHTYPE" speedFactor="0.85" vaporized="">
        <emissions CO_abs="578.81" CO2_abs="135662.57" HC_abs="3.83" PMx_abs="8.99" NOx_abs="42.90" fuel_abs="43979.70" electricity_abs="0.00"/>
    </tripinfo>
    <tripinfo id="91" depart="91.00" departLane="-27347951#0_0" departPos="5.10" departSpeed="0.00" departDelay="0.00" arrival="154.00" arrivalLane="-27346846_0" arrivalPos="213.69" arrivalSpeed="14.79" duration="63.00" routeLength="667.65" waitingTime="0.00" waitingCount="0" stopTime="0.00" timeLoss="18.55" rerouteNo="0" devices="tripinfo_91 emissions_91" vType="DEFAULT_VEHTYPE" speedFactor="1.09" vaporized="">
        <emissions CO_abs="1488.79" CO2_abs="233276.29" HC_abs="9.87" PMx_abs="16.86" NOx_abs="77.38" fuel_abs="75624.50" electricity_abs="0.00"/>
    </tripinfo>
    <tripinfo id="94" depart="94.00" departLane="1285825365#0_0" departPos="5.10" departSpeed="0.00" departDelay="0.00" arrival="155.00" arrivalLane="-160274857_0" arrivalPos="111.02" arrivalSpeed="14.60" duration="61.00" routeLength="659.12" waitingTime="3.00" waitingCount="1" stopTime="0.00" timeLoss="25.37" rerouteNo="0" devices="tripinfo_94 emissions_94" vType="DEFAULT_VEHTYPE" speedFactor="1.09" vaporized="">
        <emissions CO_abs="2134.21" CO2_abs="261941.10" HC_abs="14.14" PMx_abs="17.86" NOx_abs="91.65" fuel_abs="84916.86" electricity_abs="0.00"/>
    </tripinfo>
    <tripinfo id="52" depart="52.00" departLane="-215762527#1_0" departPos="5.10" departSpeed="0.00" departDelay="0.00" arrival="156.00" arrivalLane="1093034127#1_0" arrivalPos="202.47" arrivalSpeed="28.90" duration="104.00" routeLength="1459.08" waitingTime="0.00" waitingCount="0" stopTime="0.00" timeLoss="43.21" rerouteNo="0" devices="tripinfo_52 emissions_52" vType="DEFAULT_VEHTYPE" speedFactor="1.08" vaporized="">
        <emissions CO_abs="7773.56" CO2_abs="645886.44" HC_abs="51.47" PMx_abs="45.18" NOx_abs="249.36" fuel_abs="209384.28" electricity_abs="0.00"/>
    </tripinfo>
    <tripinfo id="59" depart="59.00" departLane="27190001_0" departPos="5.10" departSpeed="0.00" departDelay="0.00" arrival="156.00" arrivalLane="160274855#2_0" arrivalPos="66.36" arrivalSpeed="14.83" duration="97.00" routeLength="1218.91" waitingTime="0.00" waitingCount="0" stopTime="0.00" timeLoss="26.94" rerouteNo="0" devices="tripinfo_59 emissions_59" vType="DEFAULT_VEHTYPE" speedFactor="1.09" vaporized="">
        <emissions CO_abs="4201.24" CO2_abs="437713.40" HC_abs="27.83" PMx_abs="32.31" NOx_abs="159.40" fuel_abs="141899.27" electricity_abs="0.00"/>
    </tripinfo>
    <tripinfo id="107" depart="107.00" departLane="1093710256#1_0" departPos="5.10" departSpeed="0.00" departDelay="0.00" arrival="157.00" arrivalLane="27346849_0" arrivalPos="104.13" arrivalSpeed="13.44" duration="50.00" routeLength="528.83" waitingTime="0.00" waitingCount="0" stopTime="0.00" timeLoss="20.30" rerouteNo="0" devices="tripinfo_107 emissions_107" vType="DEFAULT_VEHTYPE" speedFactor="1.02" vaporized="">
        <emissions CO_abs="1824.43" CO2_abs="223230.61" HC_abs="12.07" PMx_abs="14.75" NOx_abs="77.61" fuel_abs="72367.60" electricity_abs="0.00"/>
    </tripinfo>
    <tripinfo id="56" depart="56.00" departLane="-27201935_0" departPos="5.10" departSpeed="0.00" departDelay="0.00" arrival="162.00" arrivalLane="23698638#6_0" arrivalPos="49.07" arrivalSpeed="13.99" duration="106.00" routeLength="992.33" waitingTime="6.00" waitingCount="1" stopTime="0.00" timeLoss="33.89" rerouteNo="0" devices="tripinfo_56 emissions_56" vType="DEFAULT_VEHTYPE" speedFactor="0.89" vaporized="">
        <emissions CO_abs="2382.62" CO2_abs="350897.10" HC_abs="15.79" PMx_abs="24.39" NOx_abs="120.78" fuel_abs="113755.28" electricity_abs="0.00"/>
    </tripinfo>
    <tripinfo id="76" depart="76.00" departLane="-184744473_0" departPos="5.10" departSpeed="0.00" departDelay="0.00" arrival="162.00" arrivalLane="23698636#2_0" arrivalPos="43.53" arrivalSpeed="12.97" duration="86.00" routeLength="872.59" waitingTime="1.00" waitingCount="1" stopTime="0.00" timeLoss="36.22" rerouteNo="0" devices="tripinfo_76 emissions_76" vType="DEFAULT_VEHTYPE" speedFactor="0.95" vaporized="">
        <emissions CO_abs="3095.10" CO2_abs="360605.84" HC_abs="20.49" PMx_abs="24.14" NOx_abs="127.78" fuel_abs="116902.25" electricity_abs="0.00"/>
    </tripinfo>
    <tripinfo id="100" depart="100.00" departLane="-27346863_0" departPos="5.10" departSpeed="0.00" departDelay="0.00" arrival="165.00" arrivalLane="934293362#0_0" arrivalPos="121.97" arrivalSpeed="15.58" duration="65.00" routeLength="777.56" waitingTime="0.00" waitingCount="0" stopTime="0.00" timeLoss="19.20" rerouteNo="0" devices="tripinfo_100 emissions_100" vType="DEFAULT_VEHTYPE" speedFactor="1.17" vaporized="">
        <emissions CO_abs="2133.43" CO2_abs="270899.64" HC_abs="14.15" PMx_abs="20.44" NOx_abs="93.72" fuel_abs="87821.29" electricity_abs="0.00"/>
    </tripinfo>
    <tripinfo id="67" depart="67.00" departLane="-27189985_0" departPos="5.10" departSpeed="0.00" departDelay="0.00" arrival="166.00" arrivalLane="27346860#1_0" arrivalPos="90.12" arrivalSpeed="12.48" duration="99.00" routeLength="1089.50" waitingTime="0.00" waitingCount="0" stopTime="0.00" timeLoss="33.07" rerouteNo="0" devices="tripinfo_67 emissions_67" vType="DEFAULT_VEHTYPE" speedFactor="0.94" vaporized="">
        <emissions CO_abs="3170.23" CO2_abs="394344.09" HC_abs="21.02" PMx_abs="28.08" NOx_abs="136.62" fuel_abs="127839.83" electricity_abs="0.00"/>
    </tripinfo>
    <tripinfo id="55" depart="55.00" departLane="27347903#4_0" departPos="5.10" departSpeed="0.00" departDelay="0.00" arrival="171.00" arrivalLane="27346860#0_0" arrivalPos="117.32" arrivalSpeed="14.30" duration="116.00" routeLength="1232.44" waitingTime="14.00" waitingCount="1" stopTime="0.00" timeLoss="57.28" rerouteNo="0" devices="tripinfo_55 emissions_55" vType="DEFAULT_VEHTYPE" speedFactor="1.05" vaporized="">
        <emissions CO_abs="5115.74" CO2_abs="516590.34" HC_abs="33.90" PMx_abs="34.85" NOx_abs="191.48" fuel_abs="167469.57" electricity_abs="0.00"/>
    </tripinfo>
    <tripinfo id="70" depart="70.00" departLane="-25466339#9_0" departPos="5.10" departSpeed="0.00" departDelay="0.00" arrival="171.00" arrivalLane="-27346865_0" arrivalPos="108.50" arrivalSpeed="13.82" duration="101.00" routeLength="1416.85" waitingTime="0.00" waitingCount="0" stopTime="0.00" timeLoss="35.25" rerouteNo="0" devices="tripinfo_70 emissions_70" vType="DEFAULT_VEHTYPE" speedFactor="1.01" vaporized="">
        <emissions CO_abs="5034.68" CO2_abs="481921.67" HC_abs="33.48" PMx_abs="38.30" NOx_abs="178.56" fuel_abs="156230.65" electricity_abs="0.00"/>
    </tripinfo>
    <tripinfo id="124" depart="124.00" departLane="-27346857#0_0" departPos="5.10" departSpeed="0.00" departDelay="0.00" arrival="173.00" arrivalLane="-25466310#2_0" arrivalPos="69.75" arrivalSpeed="25.40" duration="49.00" routeLength="607.15" waitingTime="0.00" waitingCount="0" stopTime="0.00" timeLoss="17.96" rerouteNo="0" devices="tripinfo_124 emissions_124" vType="DEFAULT_VEHTYPE" speedFactor="0.98" vaporized="">
        <emissions CO_abs="2859.17" CO2_abs="283410.60" HC_abs="18.93" PMx_abs="19.30" NOx_abs="103.74" fuel_abs="91876.72" electricity_abs="0.00"/>
    </tripinfo>
    <tripinfo id="131" depart="131.00" departLane="-214379312_0" departPos="5.10" departSpeed="0.00" departDelay="0.00" arrival="173.00" arrivalLane="207139556_0" arrivalPos="114.36" arrivalSpeed="13.05" duration="42.00" routeLength="382.52" waitingTime="0.00" waitingCount="0" stopTime="0.00" timeLoss="12.51" rerouteNo="0" devices="tripinfo_131 emissions_131" vType="DEFAULT_VEHTYPE" speedFactor="1.02" vaporized="">
        <emissions CO_abs="882.95" CO2_abs="154574.76" HC_abs="5.84" PMx_abs="9.50" NOx_abs="49.76" fuel_abs="50110.63" electricity_abs="0.00"/>
    </tripinfo>
    <tripinfo id="54" depart="54.00" departLane="102482931_0" departPos="5.10" departSpeed="0.00" departDelay="0.00" arrival="174.00" arrivalLane="-25466488#2_0" arrivalPos="47.19" arrivalSpeed="10.73" duration="120.00" routeLength="1202.76" waitingTime="0.00" waitingCount="0" stopTime="0.00" timeLoss="21.56" rerouteNo="0" devices="tripinfo_54 emissions_54" vType="DEFAULT_VEHTYPE" speedFactor="0.83" vaporized="">
        <emissions CO_abs="2182.31" CO2_abs="349610.09" HC_abs="14.46" PMx_abs="27.31" NOx_abs="119.11" fuel_abs="113338.34" electricity_abs="0.00"/>
    </tripinfo>
    <tripinfo id="60" depart="60.00" departLane="-1016263227#0_0" departPos="5.10" departSpeed="0.00" departDelay="0.00" arrival="177.00" arrivalLane="-27347432#2_0" arrivalPos="81.44" arrivalSpeed="13.73" duration="117.00" routeLength="1262.69" waitingTime="0.00" waitingCount="0" stopTime="0.00" timeLoss="43.73" rerouteNo="0" devices="tripinfo_60 emissions_60" vType="DEFAULT_VEHTYPE" speedFactor="1.03" vaporized="">
        <emissions CO_abs="3890.31" CO2_abs="489446.30" HC_abs="25.75" PMx_abs="33.79" NOx_abs="169.23" fuel_abs="158670.38" electricity_abs="0.00"/>
    </tripinfo>
    <tripinfo id="87" depart="87.00" departLane="58503040#2_0" departPos="5.10" departSpeed="0.00" departDelay="0.00" arrival="177.00" arrivalLane="-214356719#0_0" arrivalPos="34.86" arrivalSpeed="14.06" duration="90.00" routeLength="1523.32" waitingTime="0.00" waitingCount="0" stopTime="0.00" timeLoss="34.30" rerouteNo="0" devices="tripinfo_87 emissions_87" vType="DEFAULT_VEHTYPE" speedFactor="1.10" vaporized="">
        <emissions CO_abs="7452.53" CO2_abs="572658.48" HC_abs="49.55" PMx_abs="45.36" NOx_abs="225.44" fuel_abs="185645.18" electricity_abs="0.00"/>
    </tripinfo>
    <tripinfo id="96" depart="96.00" departLane="34256966#6_0" departPos="5.10" departSpeed="0.00" departDelay="0.00" arrival="177.00" arrivalLane="27347951#4_0" arrivalPos="81.17" arrivalSpeed="11.75" duration="81.00" routeLength="799.99" waitingTime="0.00" waitingCount="0" stopTime="0.00" timeLoss="19.89" rerouteNo="0" devices="tripinfo_96 emissions_96" vType="DEFAULT_VEHTYPE" speedFactor="0.90" vaporized="">
        <emissions CO_abs="1457.52" CO2_abs="249290.77" HC_abs="9.65" PMx_abs="17.61" NOx_abs="82.57" fuel_abs="80816.25" electricity_abs="0.00"/>
    </tripinfo>
    <tripinfo id="104" depart="104.00" departLane="-23698638#0_0" departPos="5.10" departSpeed="0.00" departDelay="0.00" arrival="183.00" arrivalLane="-27346856#1_0" arrivalPos="61.33" arrivalSpeed="12.63" duration="79.00" routeLength="1011.59" waitingTime="1.00" waitingCount="1" stopTime="0.00" timeLoss="33.12" rerouteNo="0" devices="tripinfo_104 emissions_104" vType="DEFAULT_VEHTYPE" speedFactor="1.00" vaporized="">
        <emissions CO_abs="4400.47" CO2_abs="410156.38" HC_abs="29.20" PMx_abs="29.28" NOx_abs="151.99" fuel_abs="132965.31" electricity_abs="0.00"/>
    </tripinfo>
    <tripinfo id="81" depart="81.00" departLane="28501636_0" departPos="5.10" departSpeed="0.00" departDelay="0.00" arrival="184.00" arrivalLane="214202939#1_0" arrivalPos="48.05" arrivalSpeed="12.89" duration="103.00" routeLength="1284.66" waitingTime="2.00" waitingCount="1" stopTime="0.00" timeLoss="44.19" rerouteNo="0" devices="tripinfo_81 emissions_81" vType="DEFAULT_VEHTYPE" speedFactor="1.01" vaporized="">
        <emissions CO_abs="5996.67" CO2_abs="541098.52" HC_abs="39.72" PMx_abs="37.30" NOx_abs="204.71" fuel_abs="175414.33" electricity_abs="0.00"/>
    </tripinfo>
    <tripinfo id="65" depart="65.00" departLane="27189966_0" departPos="5.10" departSpeed="0.00" departDelay="0.00" arrival="185.00" arrivalLane="-23698638#1_0" arrivalPos="52.41" arrivalSpeed="18.99" duration="120.00" routeLength="1353.41" waitingTime="3.00" waitingCount="1" stopTime="0.00" timeLoss="43.56" rerouteNo="0" devices="tripinfo_65 emissions_65" vType="DEFAULT_VEHTYPE" speedFactor="0.88" vaporized="">
        <emissions CO_abs="4185.43" CO2_abs="484530.67" HC_abs="27.82" PMx_abs="36.12" NOx_abs="171.62" fuel_abs="157076.85" electricity_abs="0.00"/>
    </tripinfo>
    <tripinfo id="129" depart="129.00" departLane="23698638#1_0" departPos="5.10" departSpeed="0.00" departDelay="0.00" arrival="185.00" arrivalLane="27432453#5_0" arrivalPos="53.32" arrivalSpeed="13.96" duration="56.00" routeLength="554.27" waitingTime="0.00" waitingCount="0" stopTime="0.00" timeLoss="29.62" rerouteNo="0" devices="tripinfo_129 emissions_129" vType="DEFAULT_VEHTYPE" speedFactor="1.03" vaporized="">
        <emissions CO_abs="1766.50" CO2_abs="241908.44" HC_abs="11.67" PMx_abs="14.60" NOx_abs="81.35" fuel_abs="78422.69" electricity_abs="0.00"/>
    </tripinfo>
    <tripinfo id="92" depart="92.00" departLane="-26883320_0" departPos="5.10" departSpeed="0.00" departDelay="0.00" arrival="188.00" arrivalLane="27347951#1_0" arrivalPos="69.26" arrivalSpeed="13.65" duration="96.00" routeLength="1094.57" waitingTime="0.00" waitingCount="0" stopTime="0.00" timeLoss="34.44" rerouteNo="0" devices="tripinfo_92 emissions_92" vType="DEFAULT_VEHTYPE" speedFactor="1.04" vaporized="">
        <emissions CO_abs="4394.59" CO2_abs="444804.29" HC_abs="29.09" PMx_abs="30.37" NOx_abs="162.64" fuel_abs="144197.59" electricity_abs="0.00"/>
    </tripinfo>
    <tripinfo id="83" depart="83.00" departLane="27201956#4_0" departPos="5.10" departSpeed="0.00" departDelay="0.00" arrival="190.00" arrivalLane="-26883320_0" arrivalPos="271.00" arrivalSpeed="12.67" duration="107.00" routeLength="1488.59" waitingTime="0.00" waitingCount="0" stopTime="0.00" timeLoss="32.02" rerouteNo="0" devices="tripinfo_83 emissions_83" vType="DEFAULT_VEHTYPE" speedFactor="0.99" vaporized="">
        <emissions CO_abs="4686.38" CO2_abs="466196.69" HC_abs="31.27" PMx_abs="40.81" NOx_abs="171.36" fuel_abs="151133.23" electricity_abs="0.00"/>
    </tripinfo>
    <tripinfo id="121" depart="121.00" departLane="995112307#1_0" departPos="5.10" departSpeed="0.00" departDelay="0.00" arrival="191.00" arrivalLane="995112305#1_0" arrivalPos="105.45" arrivalSpeed="12.98" duration="70.00" routeLength="563.79" waitingTime="9.00" waitingCount="1" stopTime="0.00" timeLoss="35.54" rerouteNo="0" devices="tripinfo_121 emissions_121" vType="DEFAULT_VEHTYPE" speedFactor="0.94" vaporized="">
        <emissions CO_abs="1467.09" CO2_abs="238918.11" HC_abs="9.70" PMx_abs="14.23" NOx_abs="80.53" fuel_abs="77453.46" electricity_abs="0.00"/>
    </tripinfo>
    <tripinfo id="78" depart="78.00" departLane="27346857#2_0" departPos="5.10" departSpeed="0.00" departDelay="0.00" arrival="192.00" arrivalLane="-206819131#1_0" arrivalPos="45.02" arrivalSpeed="15.60" duration="114.00" routeLength="1542.08" waitingTime="0.00" waitingCount="0" stopTime="0.00" timeLoss="35.92" rerouteNo="0" devices="tripinfo_78 emissions_78" vType="DEFAULT_VEHTYPE" speedFactor="0.93" vaporized="">
        <emissions CO_abs="5454.97" CO2_abs="539931.97" HC_abs="36.19" PMx_abs="41.15" NOx_abs="198.39" fuel_abs="175036.73" electricity_abs="0.00"/>
    </tripinfo>
    <tripinfo id="119" depart="119.00" departLane="-27201956#5_0" departPos="5.10" departSpeed="0.00" departDelay="0.00" arrival="192.00" arrivalLane="27189963#1_0" arrivalPos="97.86" arrivalSpeed="13.09" duration="73.00" routeLength="1090.20" waitingTime="0.00" waitingCount="0" stopTime="0.00" timeLoss="14.56" rerouteNo="0" devices="tripinfo_119 emissions_119" vType="DEFAULT_VEHTYPE" speedFactor="1.02" vaporized="">
        <emissions CO_abs="2622.60" CO2_abs="282402.11" HC_abs="17.54" PMx_abs="26.59" NOx_abs="101.78" fuel_abs="91550.23" electricity_abs="0.00"/>
    </tripinfo>
    <tripinfo id="79" depart="79.00" departLane="-25593863#2_0" departPos="5.10" departSpeed="0.00" departDelay="0.00" arrival="193.00" arrivalLane="25459948#6_0" arrivalPos="552.77" arrivalSpeed="32.48" duration="114.00" routeLength="1848.77" waitingTime="0.00" waitingCount="0" stopTime="0.00" timeLoss="17.99" rerouteNo="0" devices="tripinfo_79 emissions_79" vType="DEFAULT_VEHTYPE" speedFactor="1.18" vaporized="">
        <emissions CO_abs="5709.80" CO2_abs="499513.38" HC_abs="38.25" PMx_abs="53.02" NOx_abs="192.65" fuel_abs="161934.03" electricity_abs="0.00"/>
    </tripinfo>
    <tripinfo id="63" depart="63.00" departLane="-207139557_0" departPos="5.10" departSpeed="0.00" departDelay="0.00" arrival="196.00" arrivalLane="1229033621#2_0" arrivalPos="144.97" arrivalSpeed="25.68" duration="133.00" routeLength="1828.48" waitingTime="0.00" waitingCount="0" stopTime="0.00" timeLoss="43.79" rerouteNo="0" devices="tripinfo_63 emissions_63" vType="DEFAULT_VEHTYPE" speedFactor="0.99" vaporized="">
        <emissions CO_abs="7712.31" CO2_abs="697945.04" HC_abs="51.26" PMx_abs="54.17" NOx_abs="262.70" fuel_abs="226261.45" electricity_abs="0.00"/>
    </tripinfo>
    <tripinfo id="101" depart="101.00" departLane="-28682074#0_0" departPos="5.10" departSpeed="0.00" departDelay="0.00" arrival="196.00" arrivalLane="1016263228#0_0" arrivalPos="120.16" arrivalSpeed="13.27" duration="95.00" routeLength="1040.75" waitingTime="0.00" waitingCount="0" stopTime="0.00" timeLoss="25.61" rerouteNo="0" devices="tripinfo_101 emissions_101" vType="DEFAULT_VEHTYPE" speedFactor="1.02" vaporized="">
        <emissions CO_abs="2668.73" CO2_abs="352318.37" HC_abs="17.68" PMx_abs="25.85" NOx_abs="121.34" fuel_abs="114215.94" electricity_abs="0.00"/>
    </tripinfo>
    <tripinfo id="138" depart="138.00" departLane="-1016263228#0_0" departPos="5.10" departSpeed="0.00" departDelay="0.00" arrival="197.00" arrivalLane="27189994#4_0" arrivalPos="65.58" arrivalSpeed="13.80" duration="59.00" routeLength="683.70" waitingTime="0.00" waitingCount="0" stopTime="0.00" timeLoss="18.34" rerouteNo="0" devices="tripinfo_138 emissions_138" vType="DEFAULT_VEHTYPE" speedFactor="1.02" vaporized="">
        <emissions CO_abs="2541.82" CO2_abs="267508.73" HC_abs="16.84" PMx_abs="18.60" NOx_abs="96.77" fuel_abs="86721.65" electricity_abs="0.00"/>
    </tripinfo>
    <tripinfo id="58" depart="58.00" departLane="27189965#1_0" departPos="5.10" departSpeed="0.00" departDelay="0.00" arrival="199.00" arrivalLane="184744473_0" arrivalPos="170.85" arrivalSpeed="10.99" duration="141.00" routeLength="889.95" waitingTime="0.00" waitingCount="0" stopTime="0.00" timeLoss="34.06" rerouteNo="0" devices="tripinfo_58 emissions_58" vType="DEFAULT_VEHTYPE" speedFactor="0.86" vaporized="">
        <emissions CO_abs="1824.07" CO2_abs="331870.08" HC_abs="12.07" PMx_abs="19.99" NOx_abs="112.01" fuel_abs="107587.05" electricity_abs="0.00"/>
    </tripinfo>
    <tripinfo id="117" depart="117.00" departLane="-25593863#2_0" departPos="5.10" departSpeed="0.00" departDelay="0.00" arrival="199.00" arrivalLane="-34256966#11_0" arrivalPos="74.07" arrivalSpeed="14.42" duration="82.00" routeLength="975.27" waitingTime="0.00" waitingCount="0" stopTime="0.00" timeLoss="12.56" rerouteNo="0" devices="tripinfo_117 emissions_117" vType="DEFAULT_VEHTYPE" speedFactor="1.04" vaporized="">
        <emissions CO_abs="1391.01" CO2_abs="228706.58" HC_abs="9.28" PMx_abs="22.75" NOx_abs="78.62" fuel_abs="74143.46" electricity_abs="0.00"/>
    </tripinfo>
    <tripinfo id="74" depart="74.00" departLane="-27202364#0_0" departPos="5.10" departSpeed="0.00" departDelay="0.00" arrival="200.00" arrivalLane="215569984#5_0" arrivalPos="124.41" arrivalSpeed="9.24" duration="126.00" routeLength="1561.16" waitingTime="9.00" waitingCount="2" stopTime="0.00" timeLoss="52.51" rerouteNo="0" devices="tripinfo_74 emissions_74" vType="DEFAULT_VEHTYPE" speedFactor="0.87" vaporized="">